# vtk DataFile Version 3.0
#This file was generated by the deal.II library on 2015/9/25 at 9: 2: 8
ASCII
DATASET UNSTRUCTURED_GRID

POINTS 1240 double
0 0.5625 0
0.0625 0.5625 0
0 0.625 0
0.0625 0.625 0
0.0625 0.5625 0
0.125 0.5625 0
0.0625 0.625 0
0.125 0.625 0
0.125 0.5625 0
0.1875 0.5625 0
0.125 0.625 0
0.1875 0.625 0
0.1875 0.5625 0
0.25 0.5625 0
0.1875 0.625 0
0.25 0.625 0
0 0.625 0
0.0625 0.625 0
0 0.6875 0
0.0625 0.6875 0
0.0625 0.625 0
0.125 0.625 0
0.0625 0.6875 0
0.125 0.6875 0
0 0.6875 0
0.0625 0.6875 0
0 0.75 0
0.0625 0.75 0
0.0625 0.6875 0
0.125 0.6875 0
0.0625 0.75 0
0.125 0.75 0
0.125 0.625 0
0.1875 0.625 0
0.125 0.6875 0
0.1875 0.6875 0
0.1875 0.625 0
0.25 0.625 0
0.1875 0.6875 0
0.25 0.6875 0
0.125 0.6875 0
0.1875 0.6875 0
0.125 0.75 0
0.1875 0.75 0
0.1875 0.6875 0
0.25 0.6875 0
0.1875 0.75 0
0.25 0.75 0
0.25 0.5625 0
0.3125 0.5625 0
0.25 0.625 0
0.3125 0.625 0
0.3125 0.5625 0
0.375 0.5625 0
0.3125 0.625 0
0.375 0.625 0
0.375 0.5625 0
0.4375 0.5625 0
0.375 0.625 0
0.4375 0.625 0
0.4375 0.5625 0
0.5 0.5625 0
0.4375 0.625 0
0.5 0.625 0
0.25 0.625 0
0.3125 0.625 0
0.25 0.6875 0
0.3125 0.6875 0
0.3125 0.625 0
0.375 0.625 0
0.3125 0.6875 0
0.375 0.6875 0
0.25 0.6875 0
0.3125 0.6875 0
0.25 0.75 0
0.3125 0.75 0
0.3125 0.6875 0
0.375 0.6875 0
0.3125 0.75 0
0.375 0.75 0
0.375 0.625 0
0.4375 0.625 0
0.375 0.6875 0
0.4375 0.6875 0
0.4375 0.625 0
0.5 0.625 0
0.4375 0.6875 0
0.5 0.6875 0
0.375 0.6875 0
0.4375 0.6875 0
0.375 0.75 0
0.4375 0.75 0
0.4375 0.6875 0
0.5 0.6875 0
0.4375 0.75 0
0.5 0.75 0
0 0.75 0
0.0625 0.75 0
0 0.8125 0
0.0625 0.8125 0
0.0625 0.75 0
0.125 0.75 0
0.0625 0.8125 0
0.125 0.8125 0
0 0.8125 0
0.0625 0.8125 0
0 0.875 0
0.0625 0.875 0
0.0625 0.8125 0
0.125 0.8125 0
0.0625 0.875 0
0.125 0.875 0
0.125 0.75 0
0.1875 0.75 0
0.125 0.8125 0
0.1875 0.8125 0
0.1875 0.75 0
0.25 0.75 0
0.1875 0.8125 0
0.25 0.8125 0
0.125 0.8125 0
0.1875 0.8125 0
0.125 0.875 0
0.1875 0.875 0
0.1875 0.8125 0
0.25 0.8125 0
0.1875 0.875 0
0.25 0.875 0
0 0.875 0
0.0625 0.875 0
0 0.9375 0
0.0625 0.9375 0
0.0625 0.875 0
0.125 0.875 0
0.0625 0.9375 0
0.125 0.9375 0
0 0.9375 0
0.0625 0.9375 0
0 1 0
0.0625 1 0
0.0625 0.9375 0
0.125 0.9375 0
0.0625 1 0
0.125 1 0
0.125 0.875 0
0.1875 0.875 0
0.125 0.9375 0
0.1875 0.9375 0
0.1875 0.875 0
0.25 0.875 0
0.1875 0.9375 0
0.25 0.9375 0
0.125 0.9375 0
0.1875 0.9375 0
0.125 1 0
0.1875 1 0
0.1875 0.9375 0
0.25 0.9375 0
0.1875 1 0
0.25 1 0
0.25 0.75 0
0.3125 0.75 0
0.25 0.8125 0
0.3125 0.8125 0
0.3125 0.75 0
0.375 0.75 0
0.3125 0.8125 0
0.375 0.8125 0
0.25 0.8125 0
0.3125 0.8125 0
0.25 0.875 0
0.3125 0.875 0
0.3125 0.8125 0
0.375 0.8125 0
0.3125 0.875 0
0.375 0.875 0
0.375 0.75 0
0.4375 0.75 0
0.375 0.8125 0
0.4375 0.8125 0
0.4375 0.75 0
0.5 0.75 0
0.4375 0.8125 0
0.5 0.8125 0
0.375 0.8125 0
0.4375 0.8125 0
0.375 0.875 0
0.4375 0.875 0
0.4375 0.8125 0
0.5 0.8125 0
0.4375 0.875 0
0.5 0.875 0
0.25 0.875 0
0.3125 0.875 0
0.25 0.9375 0
0.3125 0.9375 0
0.3125 0.875 0
0.375 0.875 0
0.3125 0.9375 0
0.375 0.9375 0
0.25 0.9375 0
0.3125 0.9375 0
0.25 1 0
0.3125 1 0
0.3125 0.9375 0
0.375 0.9375 0
0.3125 1 0
0.375 1 0
0.375 0.875 0
0.4375 0.875 0
0.375 0.9375 0
0.4375 0.9375 0
0.4375 0.875 0
0.5 0.875 0
0.4375 0.9375 0
0.5 0.9375 0
0.375 0.9375 0
0.4375 0.9375 0
0.375 1 0
0.4375 1 0
0.4375 0.9375 0
0.5 0.9375 0
0.4375 1 0
0.5 1 0
0.5625 0.5 0
0.625 0.5 0
0.5625 0.5625 0
0.625 0.5625 0
0.5 0.5625 0
0.5625 0.5625 0
0.5 0.625 0
0.5625 0.625 0
0.5625 0.5625 0
0.625 0.5625 0
0.5625 0.625 0
0.625 0.625 0
0.625 0.5 0
0.6875 0.5 0
0.625 0.5625 0
0.6875 0.5625 0
0.6875 0.5 0
0.75 0.5 0
0.6875 0.5625 0
0.75 0.5625 0
0.625 0.5625 0
0.6875 0.5625 0
0.625 0.625 0
0.6875 0.625 0
0.6875 0.5625 0
0.75 0.5625 0
0.6875 0.625 0
0.75 0.625 0
0.5 0.625 0
0.5625 0.625 0
0.5 0.6875 0
0.5625 0.6875 0
0.5625 0.625 0
0.625 0.625 0
0.5625 0.6875 0
0.625 0.6875 0
0.5 0.6875 0
0.5625 0.6875 0
0.5 0.75 0
0.5625 0.75 0
0.5625 0.6875 0
0.625 0.6875 0
0.5625 0.75 0
0.625 0.75 0
0.625 0.625 0
0.6875 0.625 0
0.625 0.6875 0
0.6875 0.6875 0
0.6875 0.625 0
0.75 0.625 0
0.6875 0.6875 0
0.75 0.6875 0
0.625 0.6875 0
0.6875 0.6875 0
0.625 0.75 0
0.6875 0.75 0
0.6875 0.6875 0
0.75 0.6875 0
0.6875 0.75 0
0.75 0.75 0
0.75 0.5 0
0.8125 0.5 0
0.75 0.5625 0
0.8125 0.5625 0
0.8125 0.5 0
0.875 0.5 0
0.8125 0.5625 0
0.875 0.5625 0
0.75 0.5625 0
0.8125 0.5625 0
0.75 0.625 0
0.8125 0.625 0
0.8125 0.5625 0
0.875 0.5625 0
0.8125 0.625 0
0.875 0.625 0
0.875 0.5 0
0.9375 0.5 0
0.875 0.5625 0
0.9375 0.5625 0
0.9375 0.5 0
1 0.5 0
0.9375 0.5625 0
1 0.5625 0
0.875 0.5625 0
0.9375 0.5625 0
0.875 0.625 0
0.9375 0.625 0
0.9375 0.5625 0
1 0.5625 0
0.9375 0.625 0
1 0.625 0
0.75 0.625 0
0.8125 0.625 0
0.75 0.6875 0
0.8125 0.6875 0
0.8125 0.625 0
0.875 0.625 0
0.8125 0.6875 0
0.875 0.6875 0
0.75 0.6875 0
0.8125 0.6875 0
0.75 0.75 0
0.8125 0.75 0
0.8125 0.6875 0
0.875 0.6875 0
0.8125 0.75 0
0.875 0.75 0
0.875 0.625 0
0.9375 0.625 0
0.875 0.6875 0
0.9375 0.6875 0
0.9375 0.625 0
1 0.625 0
0.9375 0.6875 0
1 0.6875 0
0.875 0.6875 0
0.9375 0.6875 0
0.875 0.75 0
0.9375 0.75 0
0.9375 0.6875 0
1 0.6875 0
0.9375 0.75 0
1 0.75 0
0.5 0.75 0
0.5625 0.75 0
0.5 0.8125 0
0.5625 0.8125 0
0.5625 0.75 0
0.625 0.75 0
0.5625 0.8125 0
0.625 0.8125 0
0.5 0.8125 0
0.5625 0.8125 0
0.5 0.875 0
0.5625 0.875 0
0.5625 0.8125 0
0.625 0.8125 0
0.5625 0.875 0
0.625 0.875 0
0.625 0.75 0
0.6875 0.75 0
0.625 0.8125 0
0.6875 0.8125 0
0.6875 0.75 0
0.75 0.75 0
0.6875 0.8125 0
0.75 0.8125 0
0.625 0.8125 0
0.6875 0.8125 0
0.625 0.875 0
0.6875 0.875 0
0.6875 0.8125 0
0.75 0.8125 0
0.6875 0.875 0
0.75 0.875 0
0.5 0.875 0
0.5625 0.875 0
0.5 0.9375 0
0.5625 0.9375 0
0.5625 0.875 0
0.625 0.875 0
0.5625 0.9375 0
0.625 0.9375 0
0.5 0.9375 0
0.5625 0.9375 0
0.5 1 0
0.5625 1 0
0.5625 0.9375 0
0.625 0.9375 0
0.5625 1 0
0.625 1 0
0.625 0.875 0
0.6875 0.875 0
0.625 0.9375 0
0.6875 0.9375 0
0.6875 0.875 0
0.75 0.875 0
0.6875 0.9375 0
0.75 0.9375 0
0.625 0.9375 0
0.6875 0.9375 0
0.625 1 0
0.6875 1 0
0.6875 0.9375 0
0.75 0.9375 0
0.6875 1 0
0.75 1 0
0.75 0.75 0
0.8125 0.75 0
0.75 0.8125 0
0.8125 0.8125 0
0.8125 0.75 0
0.875 0.75 0
0.8125 0.8125 0
0.875 0.8125 0
0.75 0.8125 0
0.8125 0.8125 0
0.75 0.875 0
0.8125 0.875 0
0.8125 0.8125 0
0.875 0.8125 0
0.8125 0.875 0
0.875 0.875 0
0.875 0.75 0
0.9375 0.75 0
0.875 0.8125 0
0.9375 0.8125 0
0.9375 0.75 0
1 0.75 0
0.9375 0.8125 0
1 0.8125 0
0.875 0.8125 0
0.9375 0.8125 0
0.875 0.875 0
0.9375 0.875 0
0.9375 0.8125 0
1 0.8125 0
0.9375 0.875 0
1 0.875 0
0.75 0.875 0
0.8125 0.875 0
0.75 0.9375 0
0.8125 0.9375 0
0.8125 0.875 0
0.875 0.875 0
0.8125 0.9375 0
0.875 0.9375 0
0.75 0.9375 0
0.8125 0.9375 0
0.75 1 0
0.8125 1 0
0.8125 0.9375 0
0.875 0.9375 0
0.8125 1 0
0.875 1 0
0.875 0.875 0
0.9375 0.875 0
0.875 0.9375 0
0.9375 0.9375 0
0.9375 0.875 0
1 0.875 0
0.9375 0.9375 0
1 0.9375 0
0.875 0.9375 0
0.9375 0.9375 0
0.875 1 0
0.9375 1 0
0.9375 0.9375 0
1 0.9375 0
0.9375 1 0
1 1 0
0 0 0
0.0625 0 0
0 0.0625 0
0.0625 0.0625 0
0.0625 0 0
0.125 0 0
0.0625 0.0625 0
0.125 0.0625 0
0 0.0625 0
0.0625 0.0625 0
0 0.125 0
0.0625 0.125 0
0.0625 0.0625 0
0.125 0.0625 0
0.0625 0.125 0
0.125 0.125 0
0.125 0 0
0.1875 0 0
0.125 0.0625 0
0.1875 0.0625 0
0.1875 0 0
0.25 0 0
0.1875 0.0625 0
0.25 0.0625 0
0.125 0.0625 0
0.1875 0.0625 0
0.125 0.125 0
0.1875 0.125 0
0.1875 0.0625 0
0.25 0.0625 0
0.1875 0.125 0
0.25 0.125 0
0 0.125 0
0.0625 0.125 0
0 0.1875 0
0.0625 0.1875 0
0.0625 0.125 0
0.125 0.125 0
0.0625 0.1875 0
0.125 0.1875 0
0 0.1875 0
0.0625 0.1875 0
0 0.25 0
0.0625 0.25 0
0.0625 0.1875 0
0.125 0.1875 0
0.0625 0.25 0
0.125 0.25 0
0.125 0.125 0
0.1875 0.125 0
0.125 0.1875 0
0.1875 0.1875 0
0.1875 0.125 0
0.25 0.125 0
0.1875 0.1875 0
0.25 0.1875 0
0.125 0.1875 0
0.1875 0.1875 0
0.125 0.25 0
0.1875 0.25 0
0.1875 0.1875 0
0.25 0.1875 0
0.1875 0.25 0
0.25 0.25 0
0.25 0 0
0.3125 0 0
0.25 0.0625 0
0.3125 0.0625 0
0.3125 0 0
0.375 0 0
0.3125 0.0625 0
0.375 0.0625 0
0.25 0.0625 0
0.3125 0.0625 0
0.25 0.125 0
0.3125 0.125 0
0.3125 0.0625 0
0.375 0.0625 0
0.3125 0.125 0
0.375 0.125 0
0.375 0 0
0.4375 0 0
0.375 0.0625 0
0.4375 0.0625 0
0.4375 0 0
0.5 0 0
0.4375 0.0625 0
0.5 0.0625 0
0.375 0.0625 0
0.4375 0.0625 0
0.375 0.125 0
0.4375 0.125 0
0.4375 0.0625 0
0.5 0.0625 0
0.4375 0.125 0
0.5 0.125 0
0.25 0.125 0
0.3125 0.125 0
0.25 0.1875 0
0.3125 0.1875 0
0.3125 0.125 0
0.375 0.125 0
0.3125 0.1875 0
0.375 0.1875 0
0.25 0.1875 0
0.3125 0.1875 0
0.25 0.25 0
0.3125 0.25 0
0.3125 0.1875 0
0.375 0.1875 0
0.3125 0.25 0
0.375 0.25 0
0.375 0.125 0
0.4375 0.125 0
0.375 0.1875 0
0.4375 0.1875 0
0.4375 0.125 0
0.5 0.125 0
0.4375 0.1875 0
0.5 0.1875 0
0.375 0.1875 0
0.4375 0.1875 0
0.375 0.25 0
0.4375 0.25 0
0.4375 0.1875 0
0.5 0.1875 0
0.4375 0.25 0
0.5 0.25 0
0 0.25 0
0.0625 0.25 0
0 0.3125 0
0.0625 0.3125 0
0.0625 0.25 0
0.125 0.25 0
0.0625 0.3125 0
0.125 0.3125 0
0 0.3125 0
0.0625 0.3125 0
0 0.375 0
0.0625 0.375 0
0.0625 0.3125 0
0.125 0.3125 0
0.0625 0.375 0
0.125 0.375 0
0.125 0.25 0
0.1875 0.25 0
0.125 0.3125 0
0.1875 0.3125 0
0.1875 0.25 0
0.25 0.25 0
0.1875 0.3125 0
0.25 0.3125 0
0.125 0.3125 0
0.1875 0.3125 0
0.125 0.375 0
0.1875 0.375 0
0.1875 0.3125 0
0.25 0.3125 0
0.1875 0.375 0
0.25 0.375 0
0 0.375 0
0.0625 0.375 0
0 0.4375 0
0.0625 0.4375 0
0.0625 0.375 0
0.125 0.375 0
0.0625 0.4375 0
0.125 0.4375 0
0.125 0.375 0
0.1875 0.375 0
0.125 0.4375 0
0.1875 0.4375 0
0.1875 0.375 0
0.25 0.375 0
0.1875 0.4375 0
0.25 0.4375 0
0.25 0.25 0
0.3125 0.25 0
0.25 0.3125 0
0.3125 0.3125 0
0.3125 0.25 0
0.375 0.25 0
0.3125 0.3125 0
0.375 0.3125 0
0.25 0.3125 0
0.3125 0.3125 0
0.25 0.375 0
0.3125 0.375 0
0.3125 0.3125 0
0.375 0.3125 0
0.3125 0.375 0
0.375 0.375 0
0.375 0.25 0
0.4375 0.25 0
0.375 0.3125 0
0.4375 0.3125 0
0.4375 0.25 0
0.5 0.25 0
0.4375 0.3125 0
0.5 0.3125 0
0.375 0.3125 0
0.4375 0.3125 0
0.375 0.375 0
0.4375 0.375 0
0.4375 0.3125 0
0.5 0.3125 0
0.4375 0.375 0
0.5 0.375 0
0.25 0.375 0
0.3125 0.375 0
0.25 0.4375 0
0.3125 0.4375 0
0.3125 0.375 0
0.375 0.375 0
0.3125 0.4375 0
0.375 0.4375 0
0.375 0.375 0
0.4375 0.375 0
0.375 0.4375 0
0.4375 0.4375 0
0.4375 0.375 0
0.5 0.375 0
0.4375 0.4375 0
0.5 0.4375 0
0.5 0 0
[...]
POINT_DATA 1240
SCALARS x_dis double 1
LOOKUP_TABLE default
1.80841e-09 -8.83629e-07 1.67504e-09 -1.30632e-06 -8.83629e-07 -1.66786e-06 -1.30632e-06 -2.5709e-06 -1.66786e-06 -2.25125e-06 -2.5709e-06 -3.76819e-06 -2.25125e-06 -2.54179e-06 -3.76819e-06 -4.92912e-06 1.67504e-09 -1.30632e-06 1.49909e-09 -1.89042e-06 -1.30632e-06 -2.5709e-06 -1.89042e-06 -3.79683e-06 1.4991e-09 -1.89042e-06 1.30625e-09 -2.51362e-06 -1.89042e-06 -3.79683e-06 -2.51362e-06 -5.07718e-06 -2.5709e-06 -3.76819e-06 -3.79683e-06 -5.75736e-06 -3.76819e-06 -4.92912e-06 -5.75736e-06 -7.8705e-06 -3.79683e-06 -5.75736e-06 -5.07718e-06 -7.7525e-06 -5.75736e-06 -7.8705e-06 -7.7525e-06 -1.06266e-05 -2.54179e-06 -2.48655e-06 -4.92912e-06 -6.2201e-06 -2.48655e-06 -2.20944e-06 -6.2201e-06 -8.12922e-06 -2.20944e-06 -2.99506e-06 -8.12922e-06 -1.16147e-05 -2.99506e-06 -7.45577e-06 -1.16147e-05 -1.55256e-05 -4.92912e-06 -6.2201e-06 -7.8705e-06 -1.03345e-05 -6.2201e-06 -8.12922e-06 -1.03345e-05 -1.34388e-05 -7.8705e-06 -1.03345e-05 -1.06266e-05 -1.37941e-05 -1.03345e-05 -1.34388e-05 -1.37941e-05 -1.7234e-05 -8.12922e-06 -1.16147e-05 -1.34388e-05 -1.70677e-05 -1.16147e-05 -1.55256e-05 -1.70677e-05 -2.02369e-05 -1.34388e-05 -1.70677e-05 -1.7234e-05 -2.06191e-05 -1.70677e-05 -2.02369e-05 -2.06191e-05 -2.32071e-05 1.30625e-09 -2.51362e-06 1.13075e-09 -3.07323e-06 -2.51362e-06 -5.07718e-06 -3.07323e-06 -6.20291e-06 1.13075e-09 -3.07323e-06 9.93829e-10 -3.5028e-06 -3.07323e-06 -6.20291e-06 -3.5028e-06 -7.05192e-06 -5.07718e-06 -7.7525e-06 -6.20291e-06 -9.44065e-06 -7.7525e-06 -1.06266e-05 -9.44065e-06 -1.28237e-05 -6.20291e-06 -9.44065e-06 -7.05192e-06 -1.06753e-05 -9.44065e-06 -1.28237e-05 -1.06753e-05 -1.43616e-05 9.93831e-10 -3.5028e-06 9.08056e-10 -3.76881e-06 -3.5028e-06 -7.05192e-06 -3.76881e-06 -7.57122e-06 9.08056e-10 -3.76881e-06 8.78953e-10 -3.85846e-06 -3.76881e-06 -7.57122e-06 -3.85846e-06 -7.74514e-06 -7.05192e-06 -1.06753e-05 -7.57122e-06 -1.14152e-05 -1.06753e-05 -1.43616e-05 -1.14152e-05 -1.52591e-05 -7.57122e-06 -1.14152e-05 -7.74514e-06 -1.16605e-05 -1.14152e-05 -1.52591e-05 -1.16605e-05 -1.55531e-05 -1.06266e-05 -1.37941e-05 -1.28237e-05 -1.6332e-05 -1.37941e-05 -1.7234e-05 -1.6332e-05 -1.98147e-05 -1.28237e-05 -1.6332e-05 -1.43616e-05 -1.80238e-05 -1.6332e-05 -1.98147e-05 -1.80238e-05 -2.14608e-05 -1.7234e-05 -2.06191e-05 -1.98147e-05 -2.29159e-05 -2.06191e-05 -2.32071e-05 -2.29159e-05 -2.51067e-05 -1.98147e-05 -2.29159e-05 -2.14608e-05 -2.43454e-05 -2.29159e-05 -2.51067e-05 -2.43454e-05 -2.62746e-05 -1.43616e-05 -1.80238e-05 -1.52591e-05 -1.89835e-05 -1.80238e-05 -2.14608e-05 -1.89835e-05 -2.23731e-05 -1.52591e-05 -1.89835e-05 -1.55531e-05 -1.9294e-05 -1.89835e-05 -2.23731e-05 -1.9294e-05 -2.26652e-05 -2.14608e-05 -2.43454e-05 -2.23731e-05 -2.51263e-05 -2.43454e-05 -2.62746e-05 -2.51263e-05 -2.6907e-05 -2.23731e-05 -2.51263e-05 -2.26652e-05 -2.53748e-05 -2.51263e-05 -2.6907e-05 -2.53748e-05 -2.71074e-05 1.29365e-05 1.07339e-05 -8.28339e-06 -4.88675e-06 -7.45577e-06 -8.28339e-06 -1.55256e-05 -1.68421e-05 -8.28339e-06 -4.88675e-06 -1.68421e-05 -1.47945e-05 1.07339e-05 7.84341e-06 -4.88675e-06 -3.00815e-06 7.84341e-06 5.43226e-06 -3.00815e-06 -2.05968e-06 -4.88675e-06 -3.00815e-06 -1.47945e-05 -1.16284e-05 -3.00815e-06 -2.05968e-06 -1.16284e-05 -8.77141e-06 -1.55256e-05 -1.68421e-05 -2.02369e-05 -2.14243e-05 -1.68421e-05 -1.47945e-05 -2.14243e-05 -2.0151e-05 -2.02369e-05 -2.14243e-05 -2.32071e-05 -2.41808e-05 -2.14243e-05 -2.0151e-05 -2.41808e-05 -2.32093e-05 -1.47945e-05 -1.16284e-05 -2.0151e-05 -1.7252e-05 -1.16284e-05 -8.77141e-06 -1.7252e-05 -1.37513e-05 -2.0151e-05 -1.7252e-05 -2.32093e-05 -2.06235e-05 -1.7252e-05 -1.37513e-05 -2.06235e-05 -1.70384e-05 5.43226e-06 3.54756e-06 -2.05968e-06 -1.47298e-06 3.54756e-06 2.10523e-06 -1.47298e-06 -9.85621e-07 -2.05968e-06 -1.47298e-06 -8.77141e-06 -6.3051e-06 -1.47298e-06 -9.85621e-07 -6.3051e-06 -4.09462e-06 2.10523e-06 9.73067e-07 -9.85621e-07 -5.00476e-07 9.73067e-07 4.32218e-10 -5.00476e-07 -1.97317e-10 -9.85621e-07 -5.00476e-07 -4.09462e-06 -2.01965e-06 -5.00476e-07 -1.97309e-10 -2.01965e-06 -7.14031e-10 -8.77141e-06 -6.3051e-06 -1.37513e-05 -1.01978e-05 -6.3051e-06 -4.09462e-06 -1.01978e-05 -6.72861e-06 -1.37513e-05 -1.01978e-05 -1.70384e-05 -1.29655e-05 -1.01978e-05 -6.72861e-06 -1.29655e-05 -8.69634e-06 -4.09462e-06 -2.01965e-06 -6.72861e-06 -3.34257e-06 -2.01965e-06 -7.14028e-10 -3.34257e-06 -1.20644e-09 -6.72861e-06 -3.34257e-06 -8.69634e-06 -4.35867e-06 -3.34257e-06 -1.20644e-09 -4.35867e-06 -1.59206e-09 -2.32071e-05 -2.41808e-05 -2.51067e-05 -2.58777e-05 -2.41808e-05 -2.32093e-05 -2.58777e-05 -2.49976e-05 -2.51067e-05 -2.58777e-05 -2.62746e-05 -2.68925e-05 -2.58777e-05 -2.49976e-05 -2.68925e-05 -2.60216e-05 -2.32093e-05 -2.06235e-05 -2.49976e-05 -2.2601e-05 -2.06235e-05 -1.70384e-05 -2.2601e-05 -1.90547e-05 -2.49976e-05 -2.2601e-05 -2.60216e-05 -2.37176e-05 -2.2601e-05 -1.90547e-05 -2.37176e-05 -2.02153e-05 -2.62746e-05 -2.68925e-05 -2.6907e-05 -2.74307e-05 -2.68925e-05 -2.60216e-05 -2.74307e-05 -2.65479e-05 -2.6907e-05 -2.74307e-05 -2.71074e-05 -2.75994e-05 -2.74307e-05 -2.65479e-05 -2.75994e-05 -2.671e-05 -2.60216e-05 -2.37176e-05 -2.65479e-05 -2.42821e-05 -2.37176e-05 -2.02153e-05 -2.42821e-05 -2.08056e-05 -2.65479e-05 -2.42821e-05 -2.671e-05 -2.44542e-05 -2.42821e-05 -2.08056e-05 -2.44542e-05 -2.09856e-05 -1.70384e-05 -1.29655e-05 -1.90547e-05 -1.47582e-05 -1.29655e-05 -8.69634e-06 -1.47582e-05 -1.00247e-05 -1.90547e-05 -1.47582e-05 -2.02153e-05 -1.58237e-05 -1.47582e-05 -1.00247e-05 -1.58237e-05 -1.0838e-05 -8.69634e-06 -4.35867e-06 -1.00247e-05 -5.06179e-06 -4.35867e-06 -1.59206e-09 -5.06179e-06 -1.87447e-09 -1.00247e-05 -5.06179e-06 -1.0838e-05 -5.50056e-06 -5.06179e-06 -1.87447e-09 -5.50056e-06 -2.05988e-09 -2.02153e-05 -1.58237e-05 -2.08056e-05 -1.63749e-05 -1.58237e-05 -1.0838e-05 -1.63749e-05 -1.12662e-05 -2.08056e-05 -1.63749e-05 -2.09856e-05 -1.65441e-05 -1.63749e-05 -1.12662e-05 -1.65441e-05 -1.13989e-05 -1.0838e-05 -5.50056e-06 -1.12662e-05 -5.73457e-06 -5.50056e-06 -2.05988e-09 -5.73457e-06 -2.16361e-09 -1.12662e-05 -5.73457e-06 -1.13989e-05 -5.80746e-06 -5.73457e-06 -2.16361e-09 -5.80746e-06 -2.19681e-09 8.78953e-10 -3.85846e-06 9.08056e-10 -3.76881e-06 -3.85846e-06 -7.74514e-06 -3.76881e-06 -7.57122e-06 9.08055e-10 -3.76881e-06 9.93831e-10 -3.5028e-06 -3.76881e-06 -7.57122e-06 -3.5028e-06 -7.05192e-06 -7.74514e-06 -1.16605e-05 -7.57122e-06 -1.14152e-05 -1.16605e-05 -1.55531e-05 -1.14152e-05 -1.52591e-05 -7.57122e-06 -1.14152e-05 -7.05192e-06 -1.06753e-05 -1.14152e-05 -1.52591e-05 -1.06753e-05 -1.43616e-05 9.93829e-10 -3.5028e-06 1.13075e-09 -3.07323e-06 -3.5028e-06 -7.05192e-06 -3.07323e-06 -6.20291e-06 1.13075e-09 -3.07323e-06 1.30625e-09 -2.51362e-06 -3.07323e-06 -6.20291e-06 -2.51362e-06 -5.07718e-06 -7.05192e-06 -1.06753e-05 -6.20291e-06 -9.44065e-06 -1.06753e-05 -1.43616e-05 -9.44065e-06 -1.28237e-05 -6.20291e-06 -9.44065e-06 -5.07718e-06 -7.7525e-06 -9.44065e-06 -1.28237e-05 -7.7525e-06 -1.06266e-05 -1.55531e-05 -1.9294e-05 -1.52591e-05 -1.89835e-05 -1.9294e-05 -2.26652e-05 -1.89835e-05 -2.23731e-05 -1.52591e-05 -1.89835e-05 -1.43616e-05 -1.80238e-05 -1.89835e-05 -2.23731e-05 -1.80238e-05 -2.14608e-05 -2.26652e-05 -2.53748e-05 -2.23731e-05 -2.51263e-05 -2.53748e-05 -2.71074e-05 -2.51263e-05 -2.6907e-05 -2.23731e-05 -2.51263e-05 -2.14608e-05 -2.43454e-05 -2.51263e-05 -2.6907e-05 -2.43454e-05 -2.62746e-05 -1.43616e-05 -1.80238e-05 -1.28237e-05 -1.6332e-05 -1.80238e-05 -2.14608e-05 -1.6332e-05 -1.98147e-05 -1.28237e-05 -1.6332e-05 -1.06266e-05 -1.37941e-05 -1.6332e-05 -1.98147e-05 -1.37941e-05 -1.7234e-05 -2.14608e-05 -2.43454e-05 -1.98147e-05 -2.29159e-05 -2.43454e-05 -2.62746e-05 -2.29159e-05 -2.51067e-05 -1.98147e-05 -2.29159e-05 -1.7234e-05 -2.06191e-05 -2.29159e-05 -2.51067e-05 -2.06191e-05 -2.32071e-05 1.30625e-09 -2.51362e-06 1.4991e-09 -1.89042e-06 -2.51362e-06 -5.07718e-06 -1.89042e-06 -3.79683e-06 1.49909e-09 -1.89042e-06 1.67504e-09 -1.30632e-06 -1.89042e-06 -3.79683e-06 -1.30632e-06 -2.5709e-06 -5.07718e-06 -7.7525e-06 -3.79683e-06 -5.75736e-06 -7.7525e-06 -1.06266e-05 -5.75736e-06 -7.87049e-06 -3.79683e-06 -5.75736e-06 -2.5709e-06 -3.76819e-06 -5.75736e-06 -7.87049e-06 -3.76819e-06 -4.92912e-06 1.67504e-09 -1.30632e-06 1.80841e-09 -8.83629e-07 -1.30632e-06 -2.5709e-06 -8.83629e-07 -1.66786e-06 -2.5709e-06 -3.76819e-06 -1.66786e-06 -2.25124e-06 -3.76819e-06 -4.92912e-06 -2.25124e-06 -2.54179e-06 -1.06266e-05 -1.37941e-05 -7.87049e-06 -1.03345e-05 -1.37941e-05 -1.7234e-05 -1.03345e-05 -1.34388e-05 -7.87049e-06 -1.03345e-05 -4.92912e-06 -6.2201e-06 -1.03345e-05 -1.34388e-05 -6.2201e-06 -8.12922e-06 -1.7234e-05 -2.06191e-05 -1.34388e-05 -1.70677e-05 -2.06191e-05 -2.32071e-05 -1.70677e-05 -2.02369e-05 -1.34388e-05 -1.70677e-05 -8.12922e-06 -1.16147e-05 -1.70677e-05 -2.02369e-05 -1.16147e-05 -1.55255e-05 -4.92912e-06 -6.2201e-06 -2.54179e-06 -2.48655e-06 -6.2201e-06 -8.12922e-06 -2.48655e-06 -2.20943e-06 -8.12922e-06 -1.16147e-05 -2.20943e-06 -2.99506e-06 -1.16147e-05 -1.55255e-05 -2.99506e-06 -7.45577e-06 -2.71074e-05 -2.75994e-05 -2.6907e-05 -2.74307e-05 -2.75994e-05 -2.671e-05 -2.74307e-05 -2.65479e-05 -2.6907e-05 -2.74307e-05 -2.62746e-05 -2.68925e-05 -2.74307e-05 -2.65479e-05 -2.68925e-05 -2.60216e-05 -2.671e-05 -2.44542e-05 -2.65479e-05 -2.42821e-05 -2.44542e-05 -2.09856e-05 -2.42821e-05 -2.08056e-05 -2.65479e-05 -2.42821e-05 -2.60216e-05 -2.37176e-05 -2.42821e-05 -2.08056e-05 -2.37176e-05 -2.02153e-05 -2.62746e-05 -2.68925e-05 -2.51067e-05 -2.58777e-05 -2.68925e-05 -2.60216e-05 -2.58777e-05 -2.49976e-05 -2.51067e-05 -2.58777e-05 -2.32071e-05 -2.41808e-05 -2.58777e-05 -2.49976e-05 -2.41808e-05 -2.32093e-05 -2.60216e-05 -2.37176e-05 -2.49976e-05 -2.2601e-05 -2.37176e-05 -2.02153e-05 -2.2601e-05 -1.90547e-05 -2.49976e-05 -2.2601e-05 -2.32093e-05 -2.06235e-05 -2.2601e-05 -1.90547e-05 -2.06235e-05 -1.70384e-05 -2.09856e-05 -1.65441e-05 -2.08056e-05 -1.63749e-05 -1.65441e-05 -1.13989e-05 -1.63749e-05 -1.12662e-05 -2.08056e-05 -1.63749e-05 -2.02153e-05 -1.58237e-05 -1.63749e-05 -1.12662e-05 -1.58237e-05 -1.0838e-05 -1.13989e-05 -5.80746e-06 -1.12662e-05 -5.73457e-06 -5.80746e-06 -2.1968e-09 -5.73457e-06 -2.16361e-09 -1.12662e-05 -5.73457e-06 -1.0838e-05 -5.50056e-06 -5.73457e-06 -2.16361e-09 -5.50056e-06 -2.05988e-09 -2.02153e-05 -1.58237e-05 -1.90547e-05 -1.47582e-05 -1.58237e-05 -1.0838e-05 -1.47582e-05 -1.00247e-05 -1.90547e-05 -1.47582e-05 -1.70384e-05 -1.29655e-05 -1.47582e-05 -1.00247e-05 -1.29655e-05 -8.69634e-06 -1.0838e-05 -5.50056e-06 -1.00247e-05 -5.06179e-06 -5.50056e-06 -2.05988e-09 -5.06179e-06 -1.87447e-09 -1.00247e-05 -5.06179e-06 -8.69634e-06 -4.35867e-06 -5.06179e-06 -1.87447e-09 -4.35867e-06 -1.59206e-09 -2.32071e-05 -2.41808e-05 -2.02369e-05 -2.14243e-05 -2.41808e-05 -2.32093e-05 -2.14243e-05 -2.0151e-05 -2.02369e-05 -2.14243e-05 -1.55255e-05 -1.68421e-05 -2.14243e-05 -2.0151e-05 -1.68421e-05 -1.47945e-05 -2.32093e-05 -2.06235e-05 -2.0151e-05 -1.7252e-05 -2.06235e-05 -1.70384e-05 -1.7252e-05 -1.37513e-05 -2.0151e-05 -1.7252e-05 -1.47945e-05 -1.16284e-05 -1.7252e-05 -1.37513e-05 -1.16284e-05 -8.77141e-06 -1.55255e-05 -1.68421e-05 -7.45577e-06 -8.28339e-06 -1.68421e-05 -1.47945e-05 -8.28339e-06 -4.88675e-06 -8.28339e-06 -4.88675e-06 1.29365e-05 1.07339e-05 -1.47945e-05 -1.16284e-05 -4.88675e-06 -3.00815e-06 -1.16284e-05 -8.77141e-06 -3.00815e-06 -2.05968e-06 -4.88675e-06 -3.00815e-06 1.07339e-05 7.84341e-06 -3.00815e-06 -2.05968e-06 7.84341e-06 5.43226e-06 -1.70384e-05 -1.29655e-05 -1.37513e-05 -1.01978e-05 -1.29655e-05 -8.69634e-06 -1.01978e-05 -6.72861e-06 -1.37513e-05 -1.01978e-05 -8.77141e-06 -6.3051e-06 -1.01978e-05 -6.72861e-06 -6.3051e-06 -4.09462e-06 -8.69634e-06 -4.35867e-06 -6.72861e-06 -3.34257e-06 -4.35867e-06 -1.59206e-09 -3.34257e-06 -1.20644e-09 -6.72861e-06 -3.34257e-06 -4.09462e-06 -2.01965e-06 -3.34257e-06 -1.20644e-09 -2.01965e-06 -7.14027e-10 -8.77141e-06 -6.3051e-06 -2.05968e-06 -1.47298e-06 -6.3051e-06 -4.09462e-06 -1.47298e-06 -9.85622e-07 -2.05968e-06 -1.47298e-06 5.43226e-06 3.54756e-06 -1.47298e-06 -9.85622e-07 3.54756e-06 2.10523e-06 -4.09462e-06 -2.01965e-06 -9.85622e-07 -5.00476e-07 -2.01965e-06 -7.14031e-10 -5.00476e-07 -1.97309e-10 -9.85622e-07 -5.00476e-07 2.10523e-06 9.73066e-07 -5.00476e-07 -1.97317e-10 9.73066e-07 4.32217e-10 1.85021e-09 -3.67992e-07 1.83745e-09 -3.88267e-07 -3.67992e-07 -7.23474e-07 -3.88267e-07 -7.60783e-07 1.83745e-09 -3.88267e-07 1.80841e-09 -4.4091e-07 -3.88267e-07 -7.60783e-07 -4.4091e-07 -8.83629e-07 -7.23474e-07 -1.04552e-06 -7.60783e-07 -1.10933e-06 -1.04552e-06 -1.32353e-06 -1.10933e-06 -1.40446e-06 -7.60783e-07 -1.10933e-06 -8.83629e-07 -1.27574e-06 -1.10933e-06 -1.40446e-06 -1.27574e-06 -1.66786e-06 -1.32353e-06 -1.53274e-06 -1.40446e-06 -1.65034e-06 -1.53274e-06 -1.66502e-06 -1.65034e-06 -1.80497e-06 -1.40446e-06 -1.65034e-06 -1.66786e-06 -1.95955e-06 -1.65034e-06 -1.80497e-06 -1.95955e-06 -2.25125e-06 -1.66502e-06 -1.68869e-06 -1.80497e-06 -1.88211e-06 -1.68869e-06 -1.59485e-06 -1.88211e-06 -1.82717e-06 -1.80497e-06 -1.88211e-06 -2.25125e-06 -2.39652e-06 -1.88211e-06 -1.82717e-06 -2.39652e-06 -2.54179e-06 -1.59485e-06 -1.34177e-06 -1.82717e-06 -1.65985e-06 -1.34177e-06 -9.09653e-07 -1.65985e-06 -1.31563e-06 -1.82717e-06 -1.65985e-06 -2.54179e-06 -2.51417e-06 -1.65985e-06 -1.31563e-06 -2.51417e-06 -2.48655e-06 -9.09653e-07 -2.42113e-07 -1.31563e-06 -8.10991e-07 -2.42113e-07 7.57188e-07 -8.10991e-07 -1.06978e-07 -1.31563e-06 -8.10991e-07 -2.48655e-06 -2.34799e-06 -8.10991e-07 -1.06978e-07 -2.34799e-06 -2.20944e-06 7.57188e-07 2.23319e-06 -1.06978e-07 8.5737e-07 2.23319e-06 4.32933e-06 8.5737e-07 2.03272e-06 -1.06978e-07 8.5737e-07 -2.20944e-06 -2.60225e-06 8.5737e-07 2.03272e-06 -2.60225e-06 -2.99506e-06 4.32933e-06 7.63551e-06 2.03273e-06 2.38223e-06 7.63551e-06 1.24998e-05 2.38223e-06 -9.30547e-07 2.03273e-06 2.38223e-06 -2.99506e-06 -5.22541e-06 2.38223e-06 -9.30547e-07 -5.22541e-06 -7.45577e-06 1.24998e-05 1.50673e-05 -9.30548e-07 -1.71005e-06 1.50673e-05 1.29365e-05 -1.71005e-06 2.32657e-06 -9.30548e-07 -1.71005e-06 -7.45577e-06 -7.86958e-06 -1.71005e-06 2.32657e-06 -7.86958e-06 -8.28339e-06 1.80841e-09 -4.4091e-07 1.83745e-09 -3.88267e-07 -4.4091e-07 -8.83629e-07 -3.88267e-07 -7.60783e-07 1.83745e-09 -3.88267e-07 1.85021e-09 -3.67992e-07 -3.88267e-07 -7.60783e-07 -3.67992e-07 -7.23474e-07 -8.83629e-07 -1.27574e-06 -7.60783e-07 -1.10933e-06 -1.27574e-06 -1.66786e-06 -1.10933e-06 -1.40446e-06 -7.60783e-07 -1.10933e-06 -7.23474e-07 -1.04552e-06 -1.10933e-06 -1.40446e-06 -1.04552e-06 -1.32353e-06 -1.66786e-06 -1.95955e-06 -1.40446e-06 -1.65034e-06 -1.95955e-06 -2.25124e-06 -1.65034e-06 -1.80497e-06 -1.40446e-06 -1.65034e-06 -1.32353e-06 -1.53274e-06 -1.65034e-06 -1.80497e-06 -1.53274e-06 -1.66502e-06 -2.25124e-06 -2.39652e-06 -1.80497e-06 -1.88211e-06 -2.39652e-06 -2.54179e-06 -1.88211e-06 -1.82717e-06 -1.80497e-06 -1.88211e-06 -1.66502e-06 -1.68869e-06 -1.88211e-06 -1.82717e-06 -1.68869e-06 -1.59485e-06 -2.54179e-06 -2.51417e-06 -1.82717e-06 -1.65985e-06 -2.51417e-06 -2.48655e-06 -1.65985e-06 -1.31563e-06 -1.82717e-06 -1.65985e-06 -1.59485e-06 -1.34177e-06 -1.65985e-06 -1.31563e-06 -1.34177e-06 -9.09653e-07 -2.48655e-06 -2.34799e-06 -1.31563e-06 -8.10991e-07 -2.34799e-06 -2.20943e-06 -8.10991e-07 -1.06978e-07 -1.31563e-06 -8.10991e-07 -9.09653e-07 -2.42113e-07 -8.10991e-07 -1.06978e-07 -2.42113e-07 7.57188e-07 -2.20943e-06 -2.60225e-06 -1.06978e-07 8.5737e-07 -2.60225e-06 -2.99506e-06 8.5737e-07 2.03273e-06 -1.06978e-07 8.5737e-07 7.57188e-07 2.23319e-06 8.5737e-07 2.03273e-06 2.23319e-06 4.32933e-06 -2.99506e-06 -5.22541e-06 2.03273e-06 2.38223e-06 -5.22541e-06 -7.45577e-06 2.38223e-06 -9.30547e-07 2.03273e-06 2.38223e-06 4.32933e-06 7.63551e-06 2.38223e-06 -9.30547e-07 7.63551e-06 1.24998e-05 -7.45577e-06 -7.86958e-06 -9.30548e-07 -1.71005e-06 -7.86958e-06 -8.28339e-06 -1.71005e-06 2.32657e-06 -9.30548e-07 -1.71005e-06 1.24998e-05 1.50673e-05 -1.71005e-06 2.32657e-06 1.50673e-05 1.29365e-05 
SCALARS y_dis double 1
LOOKUP_TABLE default