 TITLE = "CUMULATIVE GAS INJECTION"
 VARIABLES = "Time [days]","Gas Injection [mscf]",
 ZONE F=BLOCK, T="", I =        1566
   1096.50000000000        1097.00000000000        1097.80000000000     
   1098.40000000000        1099.00000000000        1099.50000000000     
   1100.30000000000        1100.90000000000        1101.60000000000     
   1102.40000000000        1103.40000000000        1104.10000000000     
   1104.80000000000        1105.30000000000        1106.10000000000     
   1106.80000000000        1107.40000000000        1108.30000000000     
   1109.10000000000        1109.90000000000        1111.00000000000     
   1112.00000000000        1113.10000000000        1114.20000000000     
   1115.30000000000        1116.30000000000        1117.40000000000     
   1118.50000000000        1119.60000000000        1120.80000000000     
   1121.90000000000        1122.30000000000        1123.00000000000     
   1123.80000000000        1125.00000000000        1125.80000000000     
   1126.90000000000        1127.80000000000        1128.80000000000     
   1130.00000000000        1131.10000000000        1132.40000000000     
   1133.70000000000        1135.10000000000        1136.50000000000     
   1138.00000000000        1139.60000000000        1141.20000000000     
   1143.00000000000        1145.00000000000        1146.80000000000     
   1149.10000000000        1151.60000000000        1154.40000000000     
   1156.60000000000        1160.00000000000        1161.90000000000     
   1164.70000000000        1167.30000000000        1171.90000000000     
   1174.00000000000        1176.90000000000        1179.60000000000     
   1184.50000000000        1186.60000000000        1189.50000000000     
   1192.20000000000        1195.30000000000        1199.90000000000     
   1203.10000000000        1207.90000000000        1217.60000000000     
   1220.60000000000        1225.50000000000        1228.60000000000     
   1232.70000000000        1235.50000000000        1238.20000000000     
   1242.80000000000        1250.80000000000        1254.00000000000     
   1260.50000000000        1263.70000000000        1268.70000000000     
   1275.00000000000        1277.50000000000        1280.40000000000     
   1285.70000000000        1288.00000000000        1291.00000000000     
   1297.10000000000        1307.10000000000        1310.50000000000     
   1313.10000000000        1318.00000000000        1321.40000000000     
   1326.50000000000        1328.90000000000        1330.50000000000     
   1333.70000000000        1337.80000000000        1340.40000000000     
   1343.60000000000        1348.80000000000        1351.40000000000     
   1356.50000000000        1359.10000000000        1364.20000000000     
   1366.80000000000        1369.80000000000        1372.40000000000     
   1376.60000000000        1378.80000000000        1381.40000000000     
   1384.20000000000        1387.10000000000        1392.00000000000     
   1394.40000000000        1397.40000000000        1400.00000000000     
   1404.30000000000        1406.50000000000        1407.90000000000     
   1410.60000000000        1416.00000000000        1420.20000000000     
   1423.50000000000        1426.40000000000        1432.00000000000     
   1434.30000000000        1437.00000000000        1442.20000000000     
   1451.30000000000        1453.90000000000        1457.00000000000     
   1458.50000000000        1460.00000000000        1461.00000000000     
   1826.60000000000        1827.20000000000        1828.00000000000     
   1829.10000000000        1830.70000000000        1833.20000000000     
   1836.00000000000        1838.50000000000        1842.30000000000     
   1846.10000000000        1848.20000000000        1851.90000000000     
   1854.50000000000        1856.10000000000        1858.40000000000     
   1860.30000000000        1864.10000000000        1865.60000000000     
   1868.50000000000        1872.00000000000        1874.50000000000     
   1878.90000000000        1880.90000000000        1885.00000000000     
   1886.60000000000        1889.60000000000        1892.20000000000     
   1896.70000000000        1899.40000000000        1901.30000000000     
   1903.90000000000        1906.40000000000        1911.30000000000     
   1915.90000000000        1918.60000000000        1920.70000000000     
   1922.10000000000        1924.70000000000        1927.30000000000     
   1930.00000000000        1934.20000000000        1936.80000000000     
   1941.40000000000        1943.50000000000        1946.50000000000     
   1952.50000000000        1954.60000000000        1957.20000000000     
   1960.60000000000        1963.20000000000        1968.40000000000     
   1970.90000000000        1975.20000000000        1977.40000000000     
   1980.20000000000        1982.80000000000        1987.30000000000     
   1989.50000000000        1992.60000000000        1997.90000000000     
   2003.20000000000        2008.50000000000        2011.20000000000     
   2013.90000000000        2019.30000000000        2021.90000000000     
   2026.20000000000        2028.40000000000        2029.70000000000     
   2032.40000000000        2032.50000000000        2032.80000000000     
   2033.40000000000        2034.60000000000        2034.80000000000     
   2035.10000000000        2035.70000000000        2036.90000000000     
   2039.40000000000        2039.60000000000        2039.80000000000     
   2040.40000000000        2041.50000000000        2043.70000000000     
   2048.10000000000        2050.60000000000        2054.90000000000     
   2057.00000000000        2059.60000000000        2062.30000000000     
   2066.70000000000        2068.90000000000        2071.90000000000     
   2074.50000000000        2077.20000000000        2079.90000000000     
   2082.60000000000        2085.80000000000        2088.40000000000     
   2093.00000000000        2095.60000000000        2098.30000000000     
   2103.70000000000        2104.00000000000        2104.60000000000     
   2105.70000000000        2108.00000000000        2112.70000000000     
   2115.30000000000        2119.80000000000        2122.00000000000     
   2124.80000000000        2130.40000000000        2133.00000000000     
   2138.20000000000        2148.20000000000        2150.60000000000     
   2155.40000000000        2158.00000000000        2160.60000000000     
   2164.80000000000        2167.00000000000        2169.70000000000     
   2172.20000000000        2176.70000000000        2178.90000000000     
   2183.30000000000        2185.90000000000        2188.00000000000     
   2190.00000000000        2191.00000000000        2557.50000000000     
   2558.10000000000        2558.90000000000        2559.90000000000     
   2561.50000000000        2563.90000000000        2566.60000000000     
   2569.10000000000        2572.80000000000        2576.40000000000     
   2580.00000000000        2581.90000000000        2583.90000000000     
   2587.00000000000        2588.70000000000        2590.60000000000     
   2594.40000000000        2596.00000000000        2598.90000000000     
   2602.40000000000        2603.60000000000        2605.90000000000     
   2609.60000000000        2612.10000000000        2614.80000000000     
   2616.90000000000        2619.40000000000        2623.50000000000     
   2625.50000000000        2628.20000000000        2629.80000000000     
   2632.00000000000        2634.60000000000        2638.00000000000     
   2640.20000000000        2641.60000000000        2644.30000000000     
   2649.40000000000        2652.00000000000        2656.20000000000     
   2658.30000000000        2661.00000000000        2662.60000000000     
   2666.00000000000        2667.90000000000        2670.50000000000     
   2672.30000000000        2675.80000000000        2678.00000000000     
   2680.60000000000        2682.30000000000        2685.90000000000     
   2688.00000000000        2690.60000000000        2692.40000000000     
   2695.90000000000        2697.80000000000        2700.50000000000     
   2702.30000000000        2705.00000000000        2707.20000000000     
   2708.50000000000        2711.20000000000        2715.90000000000     
   2718.50000000000        2722.70000000000        2724.90000000000     
   2727.60000000000        2729.40000000000        2732.10000000000     
   2736.70000000000        2745.90000000000        2748.30000000000     
   2752.50000000000        2754.50000000000        2757.20000000000     
   2759.00000000000        2762.40000000000        2765.10000000000     
   2770.60000000000        2776.80000000000        2779.40000000000     
   2783.60000000000        2786.30000000000        2788.50000000000     
   2789.90000000000        2792.60000000000        2795.30000000000     
   2797.90000000000        2800.60000000000        2805.30000000000     
   2807.90000000000        2812.50000000000        2818.30000000000     
   2820.90000000000        2825.30000000000        2828.60000000000     
   2831.60000000000        2837.70000000000        2847.70000000000     
   2857.70000000000        2867.70000000000        2870.40000000000     
   2875.80000000000        2878.40000000000        2882.30000000000     
   2886.30000000000        2894.30000000000        2904.30000000000     
   2906.40000000000        2909.50000000000        2911.30000000000     
   2914.00000000000        2917.00000000000        2920.00000000000     
   2922.00000000000        3287.30000000000        3287.60000000000     
   3288.00000000000        3288.60000000000        3289.50000000000     
   3291.00000000000        3292.50000000000        3294.30000000000     
   3296.10000000000        3297.90000000000        3299.70000000000     
   3301.40000000000        3303.20000000000        3305.00000000000     
   3306.80000000000        3308.70000000000        3310.50000000000     
   3312.30000000000        3314.20000000000        3316.00000000000     
   3317.90000000000        3319.90000000000        3321.90000000000     
   3323.90000000000        3325.90000000000        3328.00000000000     
   3330.10000000000        3332.20000000000        3334.40000000000     
   3336.70000000000        3339.00000000000        3341.30000000000     
   3343.80000000000        3346.30000000000        3348.90000000000     
   3351.60000000000        3354.40000000000        3357.20000000000     
   3360.20000000000        3363.30000000000        3366.50000000000     
   3369.70000000000        3373.10000000000        3376.70000000000     
   3380.30000000000        3384.00000000000        3387.90000000000     
   3391.90000000000        3395.90000000000        3400.10000000000     
   3404.30000000000        3408.60000000000        3413.00000000000     
   3417.50000000000        3421.90000000000        3426.40000000000     
   3431.00000000000        3435.50000000000        3440.00000000000     
   3444.50000000000        3449.00000000000        3453.40000000000     
   3457.90000000000        3462.30000000000        3466.60000000000     
   3471.00000000000        3475.30000000000        3479.50000000000     
   3483.70000000000        3487.90000000000        3492.10000000000     
   3496.20000000000        3500.30000000000        3504.30000000000     
   3508.30000000000        3512.30000000000        3516.30000000000     
   3520.20000000000        3524.10000000000        3528.00000000000     
   3531.80000000000        3535.50000000000        3539.30000000000     
   3543.00000000000        3546.70000000000        3550.30000000000     
   3554.00000000000        3557.60000000000        3561.10000000000     
   3564.70000000000        3568.20000000000        3571.70000000000     
   3575.20000000000        3578.60000000000        3582.00000000000     
   3585.40000000000        3588.80000000000        3592.10000000000     
   3595.40000000000        3598.70000000000        3602.00000000000     
   3605.20000000000        3608.40000000000        3611.60000000000     
   3614.80000000000        3617.90000000000        3621.00000000000     
   3624.10000000000        3627.20000000000        3630.20000000000     
   3633.30000000000        3636.20000000000        3639.20000000000     
   3642.20000000000        3645.10000000000        3647.60000000000     
   3648.80000000000        3650.00000000000        3652.00000000000     
   4018.00000000000        4018.10000000000        4018.20000000000     
   4018.40000000000        4018.60000000000        4018.90000000000     
   4019.40000000000        4019.90000000000        4020.60000000000     
   4021.30000000000        4022.30000000000        4023.20000000000     
   4024.10000000000        4025.00000000000        4026.00000000000     
   4026.90000000000        4027.80000000000        4028.70000000000     
   4029.60000000000        4030.50000000000        4031.40000000000     
   4032.20000000000        4033.10000000000        4034.00000000000     
   4034.90000000000        4035.80000000000        4036.70000000000     
   4037.50000000000        4038.40000000000        4039.30000000000     
   4040.20000000000        4041.10000000000        4041.90000000000     
   4042.80000000000        4043.70000000000        4044.60000000000     
   4045.50000000000        4046.30000000000        4047.20000000000     
   4048.10000000000        4049.00000000000        4049.90000000000     
   4050.80000000000        4051.70000000000        4052.60000000000     
   4053.60000000000        4054.50000000000        4055.40000000000     
   4056.30000000000        4057.30000000000        4058.20000000000     
   4059.20000000000        4060.10000000000        4061.10000000000     
   4062.00000000000        4063.00000000000        4064.00000000000     
   4065.00000000000        4066.00000000000        4067.00000000000     
   4068.00000000000        4069.00000000000        4070.00000000000     
   4071.10000000000        4072.10000000000        4073.20000000000     
   4074.20000000000        4075.30000000000        4076.40000000000     
   4077.50000000000        4078.60000000000        4079.80000000000     
   4080.90000000000        4082.10000000000        4083.30000000000     
   4084.50000000000        4085.80000000000        4087.00000000000     
   4088.30000000000        4089.60000000000        4090.90000000000     
   4092.20000000000        4093.50000000000        4094.80000000000     
   4096.20000000000        4097.50000000000        4098.70000000000     
   4099.90000000000        4101.00000000000        4102.00000000000     
   4102.90000000000        4103.90000000000        4104.80000000000     
   4105.80000000000        4106.80000000000        4107.90000000000     
   4108.90000000000        4110.00000000000        4111.10000000000     
   4112.20000000000        4113.30000000000        4114.50000000000     
   4115.60000000000        4116.70000000000        4117.90000000000     
   4119.00000000000        4120.10000000000        4121.20000000000     
   4122.30000000000        4123.40000000000        4124.40000000000     
   4125.50000000000        4126.50000000000        4127.60000000000     
   4128.60000000000        4129.70000000000        4130.70000000000     
   4131.80000000000        4132.80000000000        4133.80000000000     
   4134.80000000000        4135.80000000000        4136.80000000000     
   4137.80000000000        4138.80000000000        4139.80000000000     
   4140.80000000000        4141.70000000000        4142.70000000000     
   4143.70000000000        4144.60000000000        4145.60000000000     
   4146.50000000000        4147.40000000000        4148.40000000000     
   4149.30000000000        4150.20000000000        4151.10000000000     
   4152.00000000000        4152.90000000000        4153.80000000000     
   4154.70000000000        4155.60000000000        4156.50000000000     
   4157.40000000000        4158.30000000000        4159.20000000000     
   4160.10000000000        4161.00000000000        4161.90000000000     
   4162.80000000000        4163.70000000000        4164.70000000000     
   4165.60000000000        4166.60000000000        4167.50000000000     
   4168.50000000000        4169.50000000000        4170.50000000000     
   4171.60000000000        4172.60000000000        4173.70000000000     
   4174.70000000000        4175.80000000000        4176.90000000000     
   4178.00000000000        4179.20000000000        4180.40000000000     
   4181.50000000000        4182.70000000000        4183.90000000000     
   4185.10000000000        4186.30000000000        4187.60000000000     
   4188.80000000000        4190.00000000000        4191.30000000000     
   4192.60000000000        4193.80000000000        4195.10000000000     
   4196.40000000000        4197.70000000000        4199.10000000000     
   4200.40000000000        4201.80000000000        4203.20000000000     
   4204.60000000000        4206.00000000000        4207.40000000000     
   4208.90000000000        4210.30000000000        4211.90000000000     
   4213.40000000000        4214.90000000000        4216.50000000000     
   4218.10000000000        4219.80000000000        4221.40000000000     
   4223.10000000000        4224.80000000000        4226.60000000000     
   4228.30000000000        4230.10000000000        4232.00000000000     
   4233.80000000000        4235.70000000000        4237.60000000000     
   4239.60000000000        4241.60000000000        4243.60000000000     
   4245.60000000000        4247.70000000000        4249.80000000000     
   4251.90000000000        4254.10000000000        4256.30000000000     
   4258.50000000000        4260.70000000000        4263.00000000000     
   4265.30000000000        4267.60000000000        4269.90000000000     
   4272.30000000000        4274.70000000000        4277.10000000000     
   4279.50000000000        4281.90000000000        4284.40000000000     
   4286.90000000000        4289.40000000000        4291.90000000000     
   4294.40000000000        4297.00000000000        4299.50000000000     
   4302.10000000000        4304.70000000000        4307.20000000000     
   4309.80000000000        4312.40000000000        4315.00000000000     
   4317.60000000000        4320.20000000000        4322.80000000000     
   4325.40000000000        4328.00000000000        4330.60000000000     
   4333.20000000000        4335.80000000000        4338.40000000000     
   4341.00000000000        4343.60000000000        4346.20000000000     
   4348.80000000000        4351.40000000000        4354.00000000000     
   4356.60000000000        4359.20000000000        4361.70000000000     
   4364.30000000000        4366.90000000000        4369.40000000000     
   4371.90000000000        4374.40000000000        4376.90000000000     
   4378.50000000000        4380.00000000000        4381.50000000000     
   4383.00000000000        4748.10000000000        4748.30000000000     
   4748.40000000000        4748.70000000000        4749.10000000000     
   4749.80000000000        4750.50000000000        4751.30000000000     
   4752.40000000000        4753.40000000000        4754.40000000000     
   4755.50000000000        4756.50000000000        4757.50000000000     
   4758.50000000000        4759.50000000000        4760.50000000000     
   4761.50000000000        4762.50000000000        4763.40000000000     
   4764.40000000000        4765.40000000000        4766.40000000000     
   4767.40000000000        4768.30000000000        4769.30000000000     
   4770.30000000000        4771.30000000000        4772.30000000000     
   4773.30000000000        4774.20000000000        4775.20000000000     
   4776.20000000000        4777.20000000000        4778.20000000000     
   4779.20000000000        4780.20000000000        4781.20000000000     
   4782.30000000000        4783.30000000000        4784.40000000000     
   4785.40000000000        4786.50000000000        4787.50000000000     
   4788.60000000000        4789.70000000000        4790.80000000000     
   4792.00000000000        4793.10000000000        4794.20000000000     
   4795.40000000000        4796.60000000000        4797.70000000000     
   4799.00000000000        4800.20000000000        4801.40000000000     
   4802.70000000000        4804.00000000000        4805.30000000000     
   4806.60000000000        4807.90000000000        4809.30000000000     
   4810.70000000000        4812.10000000000        4813.50000000000     
   4815.00000000000        4816.50000000000        4818.00000000000     
   4819.60000000000        4821.10000000000        4822.70000000000     
   4824.40000000000        4826.00000000000        4827.70000000000     
   4829.40000000000        4831.20000000000        4832.90000000000     
   4834.70000000000        4836.50000000000        4838.40000000000     
   4840.30000000000        4842.10000000000        4844.10000000000     
   4846.00000000000        4847.90000000000        4849.90000000000     
   4851.90000000000        4853.90000000000        4856.00000000000     
   4858.00000000000        4860.10000000000        4862.20000000000     
   4864.30000000000        4866.40000000000        4868.50000000000     
   4870.60000000000        4872.80000000000        4874.90000000000     
   4877.10000000000        4879.20000000000        4881.40000000000     
   4883.60000000000        4885.80000000000        4888.00000000000     
   4890.20000000000        4892.40000000000        4894.60000000000     
   4896.80000000000        4899.00000000000        4901.20000000000     
   4903.40000000000        4905.70000000000        4907.90000000000     
   4910.10000000000        4912.40000000000        4914.60000000000     
   4916.80000000000        4919.10000000000        4921.30000000000     
   4923.60000000000        4925.80000000000        4928.10000000000     
   4930.30000000000        4932.60000000000        4934.80000000000     
   4937.10000000000        4939.40000000000        4941.60000000000     
   4943.90000000000        4946.20000000000        4948.40000000000     
   4950.70000000000        4953.00000000000        4955.30000000000     
   4957.60000000000        4959.90000000000        4962.10000000000     
   4964.40000000000        4966.70000000000        4969.00000000000     
   4971.30000000000        4973.70000000000        4976.00000000000     
   4978.30000000000        4980.60000000000        4982.90000000000     
   4985.30000000000        4987.60000000000        4989.90000000000     
   4992.30000000000        4994.60000000000        4996.90000000000     
   4999.30000000000        5001.60000000000        5004.00000000000     
   5006.30000000000        5008.70000000000        5011.10000000000     
   5013.40000000000        5015.80000000000        5018.20000000000     
   5020.60000000000        5023.00000000000        5025.30000000000     
   5027.70000000000        5030.10000000000        5032.50000000000     
   5034.90000000000        5037.30000000000        5039.70000000000     
   5042.10000000000        5044.50000000000        5046.90000000000     
   5049.40000000000        5051.80000000000        5054.20000000000     
   5056.60000000000        5059.00000000000        5061.40000000000     
   5063.90000000000        5066.30000000000        5068.70000000000     
   5071.20000000000        5073.60000000000        5076.00000000000     
   5078.50000000000        5080.90000000000        5083.30000000000     
   5085.80000000000        5088.20000000000        5090.60000000000     
   5093.10000000000        5095.50000000000        5098.00000000000     
   5100.40000000000        5102.80000000000        5105.30000000000     
   5107.70000000000        5110.00000000000        5111.50000000000     
   5113.00000000000        5479.10000000000        5479.20000000000     
   5479.40000000000        5479.70000000000        5480.10000000000     
   5480.70000000000        5481.40000000000        5482.20000000000     
   5483.20000000000        5484.30000000000        5485.30000000000     
   5486.30000000000        5487.30000000000        5488.30000000000     
   5489.30000000000        5490.30000000000        5491.30000000000     
   5492.30000000000        5493.30000000000        5494.30000000000     
   5495.30000000000        5496.20000000000        5497.20000000000     
   5498.20000000000        5499.20000000000        5500.20000000000     
   5501.10000000000        5502.10000000000        5503.10000000000     
   5504.10000000000        5505.10000000000        5506.00000000000     
   5507.00000000000        5508.00000000000        5509.00000000000     
   5510.00000000000        5511.00000000000        5512.00000000000     
   5513.10000000000        5514.10000000000        5515.10000000000     
   5516.20000000000        5517.20000000000        5518.30000000000     
   5519.40000000000        5520.50000000000        5521.60000000000     
   5522.70000000000        5523.80000000000        5524.90000000000     
   5526.10000000000        5527.20000000000        5528.40000000000     
   5529.60000000000        5530.80000000000        5532.00000000000     
   5533.30000000000        5534.60000000000        5535.80000000000     
   5537.10000000000        5538.50000000000        5539.80000000000     
   5541.20000000000        5542.60000000000        5544.00000000000     
   5545.50000000000        5546.90000000000        5548.40000000000     
   5549.90000000000        5551.50000000000        5553.10000000000     
   5554.70000000000        5556.30000000000        5558.00000000000     
   5559.70000000000        5561.40000000000        5563.10000000000     
   5564.90000000000        5566.70000000000        5568.50000000000     
   5570.30000000000        5572.20000000000        5574.10000000000     
   5576.00000000000        5577.90000000000        5579.90000000000     
   5581.90000000000        5583.90000000000        5585.90000000000     
   5587.90000000000        5590.00000000000        5592.00000000000     
   5594.10000000000        5596.20000000000        5598.30000000000     
   5600.40000000000        5602.50000000000        5604.70000000000     
   5606.80000000000        5609.00000000000        5611.20000000000     
   5613.30000000000        5615.50000000000        5617.70000000000     
   5619.90000000000        5622.10000000000        5624.30000000000     
   5626.60000000000        5628.80000000000        5631.00000000000     
   5633.20000000000        5635.50000000000        5637.70000000000     
   5640.00000000000        5642.20000000000        5644.50000000000     
   5646.70000000000        5649.00000000000        5651.30000000000     
   5653.50000000000        5655.80000000000        5658.10000000000     
   5660.40000000000        5662.60000000000        5664.90000000000     
   5667.20000000000        5669.50000000000        5671.80000000000     
   5674.10000000000        5676.40000000000        5678.80000000000     
   5681.10000000000        5683.40000000000        5685.70000000000     
   5688.10000000000        5690.40000000000        5692.70000000000     
   5695.10000000000        5697.40000000000        5699.80000000000     
   5702.10000000000        5704.50000000000        5706.90000000000     
   5709.20000000000        5711.60000000000        5714.00000000000     
   5716.40000000000        5718.80000000000        5721.20000000000     
   5723.60000000000        5726.00000000000        5728.40000000000     
   5730.80000000000        5733.20000000000        5735.60000000000     
   5738.00000000000        5740.50000000000        5742.90000000000     
   5745.30000000000        5747.80000000000        5750.20000000000     
   5752.70000000000        5755.10000000000        5757.60000000000     
   5760.00000000000        5762.50000000000        5764.90000000000     
   5767.40000000000        5769.90000000000        5772.40000000000     
   5774.80000000000        5777.30000000000        5779.80000000000     
   5782.30000000000        5784.80000000000        5787.30000000000     
   5789.80000000000        5792.20000000000        5794.70000000000     
   5797.20000000000        5799.70000000000        5802.30000000000     
   5804.80000000000        5807.30000000000        5809.80000000000     
   5812.30000000000        5814.80000000000        5817.30000000000     
   5819.80000000000        5822.30000000000        5824.90000000000     
   5827.40000000000        5829.90000000000        5832.40000000000     
   5834.90000000000        5837.40000000000        5838.70000000000     
   5840.00000000000        5842.00000000000        5844.00000000000     
   6209.10000000000        6209.20000000000        6209.40000000000     
   6209.70000000000        6210.10000000000        6210.70000000000     
   6211.50000000000        6212.30000000000        6213.30000000000     
   6214.40000000000        6215.40000000000        6216.40000000000     
   6217.40000000000        6218.50000000000        6219.50000000000     
   6220.50000000000        6221.50000000000        6222.50000000000     
   6223.50000000000        6224.40000000000        6225.40000000000     
   6226.40000000000        6227.40000000000        6228.40000000000     
   6229.40000000000        6230.40000000000        6231.40000000000     
   6232.40000000000        6233.30000000000        6234.30000000000     
   6235.30000000000        6236.30000000000        6237.30000000000     
   6238.30000000000        6239.30000000000        6240.30000000000     
   6241.30000000000        6242.40000000000        6243.40000000000     
   6244.40000000000        6245.50000000000        6246.60000000000     
   6247.60000000000        6248.70000000000        6249.80000000000     
   6250.90000000000        6252.00000000000        6253.20000000000     
   6254.30000000000        6255.50000000000        6256.60000000000     
   6257.80000000000        6259.00000000000        6260.20000000000     