 TITLE = "CUMULATIVE WATER INJECTION"
 VARIABLES = "Time [days]","Water Injection [stb]",
 ZONE F=BLOCK, T="", I =         905
   1.00000000000000        3.00000000000000        7.00000000000000     
   15.0000000000000        25.0000000000000        35.0000000000000     
   45.0000000000000        55.0000000000000        65.0000000000000     
   75.0000000000000        85.0000000000000        95.0000000000000     
   105.000000000000        115.000000000000        125.000000000000     
   135.000000000000        145.000000000000        155.000000000000     
   165.000000000000        175.000000000000        185.000000000000     
   195.000000000000        205.000000000000        215.000000000000     
   225.000000000000        235.000000000000        245.000000000000     
   255.000000000000        265.000000000000        275.000000000000     
   285.000000000000        295.000000000000        305.000000000000     
   315.000000000000        325.000000000000        335.000000000000     
   345.000000000000        355.000000000000        365.000000000000     
   375.000000000000        385.000000000000        395.000000000000     
   405.000000000000        415.000000000000        425.000000000000     
   435.000000000000        445.000000000000        455.000000000000     
   465.000000000000        475.000000000000        485.000000000000     
   495.000000000000        505.000000000000        515.000000000000     
   525.000000000000        535.000000000000        545.000000000000     
   555.000000000000        565.000000000000        575.000000000000     
   585.000000000000        595.000000000000        605.000000000000     
   615.000000000000        625.000000000000        635.000000000000     
   645.000000000000        655.000000000000        665.000000000000     
   675.000000000000        685.000000000000        695.000000000000     
   705.000000000000        715.000000000000        722.650000000000     
   730.000000000000        732.450000000000        734.670000000000     
   736.930000000000        739.460000000000        743.120000000000     
   748.380000000000        752.570000000000        757.270000000000     
   764.580000000000        769.050000000000        774.220000000000     
   779.320000000000        784.650000000000        790.430000000000     
   796.840000000000        803.920000000000        808.080000000000     
   812.300000000000        816.570000000000        820.880000000000     
   825.220000000000        829.590000000000        833.990000000000     
   838.420000000000        842.870000000000        847.350000000000     
   851.850000000000        860.670000000000        869.250000000000     
   877.890000000000        886.940000000000        896.940000000000     
   906.940000000000        916.750000000000        926.010000000000     
   934.900000000000        943.530000000000        951.960000000000     
   960.220000000000        968.360000000000        976.400000000000     
   984.340000000000        992.200000000000        999.980000000000     
   1007.70000000000        1015.40000000000        1023.00000000000     
   1030.50000000000        1038.00000000000        1045.50000000000     
   1052.90000000000        1060.30000000000        1067.70000000000     
   1075.70000000000        1083.60000000000        1089.40000000000     
   1095.00000000000        1096.00000000000        1463.00000000000     
   1465.40000000000        1467.80000000000        1471.40000000000     
   1475.60000000000        1478.30000000000        1483.10000000000     
   1485.30000000000        1488.60000000000        1491.20000000000     
   1494.30000000000        1496.90000000000        1501.10000000000     
   1504.50000000000        1507.50000000000        1510.50000000000     
   1514.90000000000        1518.40000000000        1525.30000000000     
   1527.90000000000        1530.60000000000        1533.40000000000     
   1535.60000000000        1537.00000000000        1539.70000000000     
   1545.20000000000        1548.60000000000        1551.20000000000     
   1555.70000000000        1558.20000000000        1563.40000000000     
   1566.00000000000        1570.80000000000        1572.90000000000     
   1575.50000000000        1580.70000000000        1583.20000000000     
   1585.00000000000        1588.60000000000        1591.20000000000     
   1595.80000000000        1598.50000000000        1602.80000000000     
   1607.40000000000        1610.00000000000        1614.50000000000     
   1616.70000000000        1619.50000000000        1621.30000000000     
   1623.80000000000        1628.10000000000        1630.20000000000     
   1632.90000000000        1635.50000000000        1638.20000000000     
   1640.40000000000        1641.70000000000        1644.20000000000     
   1646.90000000000        1649.80000000000        1655.70000000000     
   1658.20000000000        1660.80000000000        1663.00000000000     
   1664.30000000000        1666.90000000000        1672.20000000000     
   1674.70000000000        1676.80000000000        1679.50000000000     
   1682.10000000000        1686.60000000000        1689.20000000000     
   1691.70000000000        1695.80000000000        1697.90000000000     
   1699.20000000000        1701.80000000000        1707.00000000000     
   1717.00000000000        1727.00000000000        1729.50000000000     
   1734.30000000000        1736.20000000000        1739.50000000000     
   1741.10000000000        1744.10000000000        1750.00000000000     
   1752.90000000000        1754.50000000000        1757.80000000000     
   1759.90000000000        1762.50000000000        1764.10000000000     
   1767.40000000000        1770.00000000000        1772.50000000000     
   1775.00000000000        1780.10000000000        1782.70000000000     
   1787.30000000000        1789.80000000000        1794.50000000000     
   1796.60000000000        1799.10000000000        1804.20000000000     
   1806.60000000000        1811.60000000000        1817.20000000000     
   1820.80000000000        1822.40000000000        1823.70000000000     
   1825.00000000000        1826.00000000000        2193.00000000000     
   2195.40000000000        2197.80000000000        2200.60000000000     
   2203.20000000000        2205.50000000000        2208.20000000000     
   2210.00000000000        2212.70000000000        2215.30000000000     
   2218.10000000000        2220.30000000000        2221.60000000000     
   2224.30000000000        2229.00000000000        2231.60000000000     
   2233.80000000000        2236.50000000000        2239.00000000000     
   2242.00000000000        2243.80000000000        2246.80000000000     
   2252.10000000000        2254.80000000000        2257.40000000000     
   2262.60000000000        2265.60000000000        2266.90000000000     
   2269.50000000000        2274.00000000000        2276.60000000000     
   2281.80000000000        2284.30000000000        2286.50000000000     
   2287.90000000000        2290.50000000000        2293.10000000000     
   2297.70000000000        2300.30000000000        2304.90000000000     
   2307.60000000000        2312.20000000000        2321.30000000000     
   2323.80000000000        2328.00000000000        2330.10000000000     
   2332.80000000000        2334.50000000000        2337.00000000000     
   2339.20000000000        2341.80000000000        2344.40000000000     
   2346.60000000000        2349.30000000000        2351.80000000000     
   2353.90000000000        2355.30000000000        2357.90000000000     
   2360.40000000000        2363.00000000000        2365.20000000000     
   2366.60000000000        2369.20000000000        2372.10000000000     
   2374.70000000000        2377.30000000000        2379.50000000000     
   2382.00000000000        2384.90000000000        2390.80000000000     
   2393.40000000000        2395.50000000000        2398.20000000000     
   2400.70000000000        2403.30000000000        2406.20000000000     
   2408.80000000000        2413.40000000000        2416.00000000000     
   2420.50000000000        2429.50000000000        2431.90000000000     
   2436.30000000000        2444.30000000000        2447.30000000000     
   2453.20000000000        2455.80000000000        2458.40000000000     
   2461.80000000000        2468.70000000000        2478.60000000000     
   2480.80000000000        2484.90000000000        2486.80000000000     
   2489.40000000000        2491.00000000000        2494.00000000000     
   2498.10000000000        2500.60000000000        2505.70000000000     
   2515.70000000000        2525.70000000000        2528.10000000000     
   2531.40000000000        2534.00000000000        2539.10000000000     
   2541.60000000000        2546.70000000000        2550.50000000000     
   2555.00000000000        2557.00000000000        2924.40000000000     
   2926.70000000000        2929.20000000000        2932.00000000000     
   2937.10000000000        2939.70000000000        2942.40000000000     
   2947.20000000000        2955.20000000000        2957.70000000000     
   2959.40000000000        2962.80000000000        2964.90000000000     
   2967.50000000000        2969.30000000000        2971.90000000000     
   2973.70000000000        2977.10000000000        2979.60000000000     
   2982.20000000000        2983.90000000000        2987.40000000000     
   2989.60000000000        2992.20000000000        2994.80000000000     
   2997.40000000000        3002.50000000000        3005.00000000000     
   3006.70000000000        3009.30000000000        3011.90000000000     
   3014.70000000000        3016.80000000000        3019.40000000000     
   3021.20000000000        3023.80000000000        3026.00000000000     
   3028.50000000000        3031.10000000000        3033.20000000000     
   3035.90000000000        3038.50000000000        3040.60000000000     
   3043.30000000000        3047.70000000000        3050.30000000000     
   3052.90000000000        3055.00000000000        3057.50000000000     
   3060.10000000000        3062.80000000000        3065.40000000000     
   3067.50000000000        3070.10000000000        3072.70000000000     
   3075.30000000000        3079.80000000000        3082.40000000000     
   3084.60000000000        3087.10000000000        3089.70000000000     
   3094.20000000000        3096.90000000000        3101.40000000000     
   3110.40000000000        3120.40000000000        3130.40000000000     
   3140.40000000000        3150.40000000000        3160.40000000000     
   3170.40000000000        3180.40000000000        3190.40000000000     
   3200.40000000000        3210.40000000000        3220.40000000000     
   3230.40000000000        3240.40000000000        3250.40000000000     
   3260.40000000000        3270.40000000000        3277.80000000000     
   3285.00000000000        3287.00000000000        3654.80000000000     
   3657.10000000000        3659.60000000000        3662.40000000000     
   3666.40000000000        3671.40000000000        3676.10000000000     
   3680.70000000000        3685.10000000000        3689.40000000000     
   3693.50000000000        3697.50000000000        3701.50000000000     
   3705.40000000000        3709.20000000000        3713.10000000000     
   3716.80000000000        3720.40000000000        3723.90000000000     
   3727.40000000000        3730.60000000000        3733.00000000000     
   3734.80000000000        3736.90000000000        3739.10000000000     
   3741.60000000000        3742.90000000000        3744.40000000000     
   3745.90000000000        3747.70000000000        3749.50000000000     
   3751.60000000000        3753.80000000000        3756.20000000000     
   3758.70000000000        3761.30000000000        3764.20000000000     
   3767.10000000000        3770.30000000000        3773.70000000000     
   3777.20000000000        3781.00000000000        3784.90000000000     
   3789.00000000000        3793.30000000000        3797.80000000000     
   3802.50000000000        3807.30000000000        3812.20000000000     
   3817.20000000000        3822.40000000000        3827.70000000000     
   3833.20000000000        3838.80000000000        3844.60000000000     
   3850.60000000000        3856.80000000000        3863.10000000000     
   3869.60000000000        3876.20000000000        3882.90000000000     
   3889.80000000000        3896.80000000000        3904.00000000000     
   3912.10000000000        3920.60000000000        3929.50000000000     
   3938.70000000000        3948.40000000000        3958.40000000000     
   3968.40000000000        3978.40000000000        3988.40000000000     
   3998.40000000000        4006.90000000000        4011.00000000000     
   4015.00000000000        4018.00000000000        4385.50000000000     
   4387.80000000000        4390.10000000000        4392.70000000000     
   4395.20000000000        4397.70000000000        4400.30000000000     
   4402.90000000000        4405.50000000000        4408.20000000000     
   4410.80000000000        4413.50000000000        4416.20000000000     
   4418.90000000000        4421.60000000000        4424.40000000000     
   4427.20000000000        4430.00000000000        4432.80000000000     
   4435.70000000000        4438.60000000000        4441.50000000000     
   4444.40000000000        4447.40000000000        4450.30000000000     
   4453.30000000000        4456.40000000000        4459.40000000000     
   4462.50000000000        4465.60000000000        4468.70000000000     
   4471.90000000000        4475.10000000000        4478.30000000000     
   4481.50000000000        4484.80000000000        4488.10000000000     
   4491.40000000000        4494.80000000000        4498.10000000000     
   4501.50000000000        4505.00000000000        4508.40000000000     
   4511.90000000000        4515.50000000000        4519.00000000000     
   4522.60000000000        4526.20000000000        4529.90000000000     
   4533.50000000000        4537.20000000000        4541.00000000000     
   4544.80000000000        4548.60000000000        4552.40000000000     
   4556.30000000000        4560.20000000000        4564.10000000000     
   4568.10000000000        4572.10000000000        4576.20000000000     
   4580.20000000000        4584.40000000000        4588.50000000000     
   4592.70000000000        4596.90000000000        4601.20000000000     
   4605.50000000000        4609.80000000000        4614.20000000000     
   4618.70000000000        4623.10000000000        4627.60000000000     
   4632.20000000000        4636.80000000000        4641.40000000000     
   4646.10000000000        4650.80000000000        4655.60000000000     
   4660.50000000000        4665.30000000000        4670.30000000000     
   4675.30000000000        4680.40000000000        4685.50000000000     
   4690.70000000000        4696.00000000000        4701.30000000000     
   4706.70000000000        4712.10000000000        4717.60000000000     
   4723.20000000000        4728.80000000000        4734.50000000000     
   4739.80000000000        4742.50000000000        4745.00000000000     
   4748.00000000000        5115.40000000000        5117.70000000000     
   5120.10000000000        5122.60000000000        5125.10000000000     
   5127.70000000000        5130.30000000000        5132.90000000000     
   5135.50000000000        5138.10000000000        5140.80000000000     
   5143.50000000000        5146.20000000000        5149.00000000000     
   5151.70000000000        5154.50000000000        5157.40000000000     
   5160.20000000000        5163.10000000000        5166.00000000000     
   5169.00000000000        5171.90000000000        5174.90000000000     
   5177.90000000000        5181.00000000000        5184.00000000000     
   5187.10000000000        5190.30000000000        5193.40000000000     
   5196.60000000000        5199.80000000000        5203.00000000000     
   5206.30000000000        5209.60000000000        5212.90000000000     
   5216.30000000000        5219.60000000000        5223.00000000000     
   5226.50000000000        5229.90000000000        5233.40000000000     
   5237.00000000000        5240.50000000000        5244.10000000000     
   5247.70000000000        5251.30000000000        5255.00000000000     
   5258.70000000000        5262.40000000000        5266.20000000000     
   5270.00000000000        5273.80000000000        5277.70000000000     
   5281.60000000000        5285.50000000000        5289.50000000000     
   5293.40000000000        5297.50000000000        5301.50000000000     
   5305.60000000000        5309.70000000000        5313.90000000000     
   5318.10000000000        5322.40000000000        5326.60000000000     
   5330.90000000000        5335.30000000000        5339.70000000000     
   5344.10000000000        5348.60000000000        5353.10000000000     
   5357.70000000000        5362.30000000000        5366.90000000000     
   5371.60000000000        5376.30000000000        5381.10000000000     
   5386.00000000000        5390.80000000000        5395.80000000000     
   5400.80000000000        5405.80000000000        5410.90000000000     
   5416.00000000000        5421.20000000000        5426.50000000000     
   5431.80000000000        5437.20000000000        5442.60000000000     
   5448.10000000000        5453.70000000000        5459.30000000000     
   5465.00000000000        5470.10000000000        5472.60000000000     
   5475.00000000000        5479.00000000000        5846.50000000000     
   5848.80000000000        5851.20000000000        5853.80000000000     
   5856.40000000000        5859.10000000000        5861.80000000000     
   5864.50000000000        5867.20000000000        5870.00000000000     
   5872.80000000000        5875.60000000000        5878.40000000000     
   5881.30000000000        5884.20000000000        5887.10000000000     
   5890.00000000000        5893.00000000000        5896.00000000000     
   5899.00000000000        5902.00000000000        5905.10000000000     
   5908.20000000000        5911.30000000000        5914.50000000000     
   5917.70000000000        5920.90000000000        5924.10000000000     
   5927.40000000000        5930.70000000000        5934.00000000000     
   5937.40000000000        5940.80000000000        5944.20000000000     
   5947.60000000000        5951.10000000000        5954.50000000000     
   5958.10000000000        5961.60000000000        5965.20000000000     
   5968.80000000000        5972.40000000000        5976.10000000000     
   5979.80000000000        5983.50000000000        5987.30000000000     
   5991.10000000000        5994.90000000000        5998.70000000000     
   6002.60000000000        6006.50000000000        6010.50000000000     
   6014.50000000000        6018.50000000000        6022.50000000000     
   6026.60000000000        6030.70000000000        6034.80000000000     
   6039.00000000000        6043.20000000000        6047.50000000000     
   6051.80000000000        6056.10000000000        6060.50000000000     
   6064.90000000000        6069.30000000000        6073.80000000000     
   6078.30000000000        6082.90000000000        6087.50000000000     
   6092.10000000000        6096.80000000000        6101.50000000000     
   6106.30000000000        6111.10000000000        6116.00000000000     
   6120.90000000000        6125.80000000000        6130.90000000000     
   6135.90000000000        6141.00000000000        6146.20000000000     
   6151.40000000000        6156.70000000000        6162.10000000000     
   6167.40000000000        6172.90000000000        6178.40000000000     
   6184.00000000000        6189.60000000000        6195.30000000000     
   6200.30000000000        6202.70000000000        6205.00000000000     
   6209.00000000000        6576.50000000000        6578.80000000000     
   6581.20000000000        6583.90000000000        6586.50000000000     
   6589.20000000000        6591.90000000000        6594.60000000000     
   6597.40000000000        6600.20000000000        6603.00000000000     
   6605.80000000000        6608.70000000000        6611.60000000000     
   6614.50000000000        6617.40000000000        6620.40000000000     
   6623.40000000000        6626.40000000000        6629.40000000000     
   6632.50000000000        6635.60000000000        6638.70000000000     
   6641.90000000000        6645.10000000000        6648.30000000000     
   6651.50000000000        6654.80000000000        6658.10000000000     
   6661.40000000000        6664.70000000000        6668.10000000000     
   6671.50000000000        6675.00000000000        6678.40000000000     
   6681.90000000000        6685.40000000000        6689.00000000000     
   6692.60000000000        6696.20000000000        6699.80000000000     
   6703.50000000000        6707.20000000000        6710.90000000000     
   6714.60000000000        6718.40000000000        6722.20000000000     
   6726.10000000000        6730.00000000000        6733.90000000000     
   6737.80000000000        6741.80000000000        6745.80000000000     
   6749.80000000000        6753.90000000000        6758.00000000000     
   6762.20000000000        6766.30000000000        6770.50000000000     
   6774.80000000000        6779.10000000000        6783.40000000000     
   6787.70000000000        6792.10000000000        6796.60000000000     
   6801.00000000000        6805.50000000000        6810.10000000000     
   6814.70000000000        6819.30000000000        6824.00000000000     
   6828.70000000000        6833.50000000000        6838.30000000000     
   6843.10000000000        6848.00000000000        6853.00000000000     
   6858.00000000000        6863.00000000000        6868.10000000000     
   6873.30000000000        6878.50000000000        6883.70000000000     
   6889.10000000000        6894.40000000000        6899.90000000000     
   6905.30000000000        6910.90000000000        6916.50000000000     
   6922.20000000000        6927.90000000000        6931.50000000000     
   6935.00000000000        6940.00000000000     
 
  0.000000000000000E+000  0.000000000000000E+000  0.000000000000000E+000
  0.000000000000000E+000  0.000000000000000E+000  0.000000000000000E+000
  0.000000000000000E+000  0.000000000000000E+000  0.000000000000000E+000
  0.000000000000000E+000  0.000000000000000E+000  0.000000000000000E+000
  0.000000000000000E+000  0.000000000000000E+000  0.000000000000000E+000
  0.000000000000000E+000  0.000000000000000E+000  0.000000000000000E+000
  0.000000000000000E+000  0.000000000000000E+000  0.000000000000000E+000
  0.000000000000000E+000  0.000000000000000E+000  0.000000000000000E+000
  0.000000000000000E+000  0.000000000000000E+000  0.000000000000000E+000
  0.000000000000000E+000  0.000000000000000E+000  0.000000000000000E+000
  0.000000000000000E+000  0.000000000000000E+000  0.000000000000000E+000
  0.000000000000000E+000  0.000000000000000E+000  0.000000000000000E+000
  0.000000000000000E+000  0.000000000000000E+000  0.000000000000000E+000
  0.000000000000000E+000  0.000000000000000E+000  0.000000000000000E+000
  0.000000000000000E+000  0.000000000000000E+000  0.000000000000000E+000
  0.000000000000000E+000  0.000000000000000E+000  0.000000000000000E+000
  0.000000000000000E+000  0.000000000000000E+000  0.000000000000000E+000
  0.000000000000000E+000  0.000000000000000E+000  0.000000000000000E+000
  0.000000000000000E+000  0.000000000000000E+000  0.000000000000000E+000
  0.000000000000000E+000  0.000000000000000E+000  0.000000000000000E+000
  0.000000000000000E+000  0.000000000000000E+000  0.000000000000000E+000
  0.000000000000000E+000  0.000000000000000E+000  0.000000000000000E+000
  0.000000000000000E+000  0.000000000000000E+000  0.000000000000000E+000
  0.000000000000000E+000  0.000000000000000E+000  0.000000000000000E+000
  0.000000000000000E+000  0.000000000000000E+000  0.000000000000000E+000
  0.000000000000000E+000   29444.0000000000        56017.0000000000     
   83109.0000000000        113540.000000000        157420.000000000     
   220610.000000000        270860.000000000        327230.000000000     
   414970.000000000        468630.000000000        530640.000000000     
   591830.000000000        655840.000000000        725110.000000000     
   802060.000000000        887040.000000000        936940.000000000     
   987600.000000000        1038800.00000000        1090500.00000000     
   1142700.00000000        1195100.00000000        1247900.00000000     
   1301000.00000000        1354500.00000000        1408100.00000000     
   1462100.00000000        1568000.00000000        1671000.00000000     
   1774700.00000000        1883300.00000000        2003300.00000000     
   2123300.00000000        2241000.00000000        2352100.00000000     
   2458800.00000000        2562300.00000000        2663500.00000000     
   2762700.00000000        2860300.00000000        2956800.00000000     
   3052100.00000000        3146300.00000000        3239800.00000000     
   3332500.00000000        3424500.00000000        3515700.00000000     
   3606300.00000000        3696400.00000000        3786000.00000000     
   3875200.00000000        3964100.00000000        4052600.00000000     
   4148300.00000000        4243800.00000000        4313300.00000000     
   4380000.00000000        4392000.00000000        4416000.00000000     
   4444400.00000000        4466800.00000000        4492400.00000000     
   4519600.00000000        4535500.00000000        4566800.00000000     
   4581400.00000000        4604800.00000000        4624100.00000000     
   4647500.00000000        4668800.00000000        4704900.00000000     
   4736100.00000000        4763900.00000000        4793100.00000000     
   4838500.00000000        4874800.00000000        4951600.00000000     
   4981600.00000000        5012500.00000000        5046200.00000000     
   5073100.00000000        5089500.00000000        5122200.00000000     
   5187700.00000000        5228100.00000000        5260100.00000000     
   5313300.00000000        5344200.00000000        5406000.00000000     
   5437900.00000000        5495300.00000000        5520800.00000000     
   5551700.00000000        5613600.00000000        5644300.00000000     
   5665800.00000000        5709000.00000000        5739300.00000000     
   5794600.00000000        5827500.00000000        5879200.00000000     
   5933700.00000000        5965400.00000000        6019700.00000000     
   6045400.00000000        6079700.00000000        6101000.00000000     
   6131600.00000000        6182200.00000000        6208100.00000000     
   6240500.00000000        6270900.00000000        6303700.00000000     
   6329800.00000000        6345700.00000000        6376000.00000000     
   6407800.00000000        6443200.00000000        6514100.00000000     
   6544200.00000000        6575500.00000000        6601300.00000000     
   6617100.00000000        6648600.00000000        6711700.00000000     
   6741500.00000000        6767400.00000000        6799400.00000000     
   6830400.00000000        6885100.00000000        6915600.00000000     
   6945800.00000000        6995000.00000000        7020500.00000000     
   7036100.00000000        7067300.00000000        7129700.00000000     
   7249700.00000000        7369700.00000000        7399900.00000000     
   7456900.00000000        7480400.00000000        7519700.00000000     
   7538100.00000000        7574700.00000000        7645400.00000000     
   7680200.00000000        7699900.00000000        7739200.00000000     
   7764300.00000000        7795100.00000000        7815000.00000000     
   7854700.00000000        7885500.00000000        7915300.00000000     
   7945900.00000000        8007100.00000000        8037300.00000000     
   8092700.00000000        8122700.00000000        8179000.00000000     
   8204200.00000000        8234600.00000000        8295300.00000000     
   8325000.00000000        8384300.00000000        8451600.00000000     
   8495300.00000000        8514200.00000000        8530100.00000000     
   8545400.00000000        8557400.00000000        8581400.00000000     
   8609700.00000000        8638200.00000000        8660700.00000000     
   8679800.00000000        8695600.00000000        8716600.00000000     
   8730400.00000000        8752400.00000000        8774100.00000000     
   8797700.00000000        8817700.00000000        8830300.00000000     
   8856200.00000000        8903900.00000000        8931600.00000000     
   8955200.00000000        8984500.00000000        9013500.00000000     
   9048200.00000000        9069000.00000000        9105100.00000000     
   9169300.00000000        9200700.00000000        9232100.00000000     
   9294500.00000000        9330300.00000000        9346400.00000000     
   9377300.00000000        9432000.00000000        9463000.00000000     
   9525100.00000000        9555700.00000000        9582000.00000000     
   9597900.00000000        9629700.00000000        9661300.00000000     
   9716400.00000000        9747000.00000000        9802400.00000000     
   9834600.00000000        9889600.00000000        9999700.00000000     
   10030000.0000000        10080000.0000000        10105000.0000000     
   10137000.0000000        10157000.0000000        10187000.0000000     
   10213000.0000000        10246000.0000000        10277000.0000000     
   10303000.0000000        10335000.0000000        10365000.0000000     
   10391000.0000000        10407000.0000000        10438000.0000000     
   10469000.0000000        10500000.0000000        10526000.0000000     
   10542000.0000000        10574000.0000000        10608000.0000000     
   10640000.0000000        10672000.0000000        10697000.0000000     
   10728000.0000000        10763000.0000000        10834000.0000000     
   10864000.0000000        10890000.0000000        10922000.0000000     