 TITLE="WATER INJECTION RATE, WELL 01"                                 
 VARIABLES="Time [days]","Water Injn. Rate[stb/day]",
 ZONE F=BLOCK, T="", I =         553
  0.100000000000000       0.300000000000000       0.700000000000000     
   1.50000000000000        3.10000000000000        6.30000000000000     
   12.7000000000000        22.7000000000000        32.7000000000000     
   42.7000000000000        52.7000000000000        62.7000000000000     
   72.7000000000000        82.7000000000000        92.7000000000000     
   102.700000000000        112.700000000000        122.700000000000     
   132.700000000000        142.700000000000        152.700000000000     
   162.700000000000        172.700000000000        182.700000000000     
   192.700000000000        202.700000000000        212.700000000000     
   222.700000000000        232.700000000000        242.700000000000     
   252.700000000000        262.700000000000        272.700000000000     
   282.700000000000        292.700000000000        302.700000000000     
   312.700000000000        322.700000000000        332.700000000000     
   342.700000000000        352.700000000000        359.020000000000     
   365.100000000000        375.100000000000        385.100000000000     
   395.100000000000        405.100000000000        415.100000000000     
   425.100000000000        435.100000000000        445.100000000000     
   455.100000000000        465.100000000000        475.100000000000     
   485.100000000000        495.100000000000        505.100000000000     
   515.100000000000        525.100000000000        535.100000000000     
   545.100000000000        555.100000000000        565.100000000000     
   575.100000000000        585.100000000000        595.100000000000     
   605.100000000000        615.100000000000        625.100000000000     
   635.100000000000        645.100000000000        655.100000000000     
   665.100000000000        675.100000000000        685.100000000000     
   695.100000000000        705.100000000000        715.100000000000     
   722.750000000000        730.100000000000        732.550000000000     
   734.770000000000        737.030000000000        739.560000000000     
   743.220000000000        748.480000000000        752.670000000000     
   757.370000000000        764.680000000000        769.150000000000     
   774.320000000000        779.420000000000        784.750000000000     
   790.530000000000        796.940000000000        804.010000000000     
   808.170000000000        812.390000000000        816.650000000000     
   820.960000000000        825.300000000000        829.680000000000     
   834.080000000000        838.500000000000        842.950000000000     
   847.420000000000        851.920000000000        860.750000000000     
   869.340000000000        877.970000000000        887.010000000000     
   897.010000000000        907.010000000000        916.820000000000     
   926.090000000000        934.980000000000        943.610000000000     
   952.040000000000        960.300000000000        968.440000000000     
   976.480000000000        984.420000000000        992.280000000000     
   1000.10000000000        1007.80000000000        1015.50000000000     
   1023.10000000000        1030.60000000000        1038.10000000000     
   1045.60000000000        1053.00000000000        1060.40000000000     
   1067.80000000000        1075.80000000000        1083.70000000000     
   1089.50000000000        1095.10000000000        1096.00000000000     
   1462.80000000000        1464.90000000000        1467.20000000000     
   1469.70000000000        1472.90000000000        1478.00000000000     
   1484.90000000000        1493.20000000000        1502.70000000000     
   1512.70000000000        1522.70000000000        1532.70000000000     
   1542.70000000000        1552.70000000000        1562.70000000000     
   1572.70000000000        1582.70000000000        1592.70000000000     
   1602.70000000000        1612.70000000000        1622.70000000000     
   1631.00000000000        1639.30000000000        1647.50000000000     
   1655.60000000000        1661.80000000000        1667.90000000000     
   1674.00000000000        1680.10000000000        1686.20000000000     
   1692.30000000000        1698.40000000000        1704.40000000000     
   1710.40000000000        1716.50000000000        1722.40000000000     
   1728.40000000000        1734.40000000000        1740.30000000000     
   1746.20000000000        1752.20000000000        1758.10000000000     
   1765.40000000000        1772.70000000000        1780.00000000000     
   1787.30000000000        1794.50000000000        1801.80000000000     
   1809.10000000000        1816.30000000000        1820.80000000000     
   1825.10000000000        1826.00000000000        2192.80000000000     
   2195.00000000000        2197.30000000000        2199.90000000000     
   2203.20000000000        2208.30000000000        2216.00000000000     
   2225.80000000000        2235.50000000000        2245.50000000000     
   2255.50000000000        2265.50000000000        2275.50000000000     
   2285.50000000000        2295.50000000000        2305.50000000000     
   2315.50000000000        2325.50000000000        2335.50000000000     
   2345.50000000000        2355.50000000000        2365.50000000000     
   2375.50000000000        2385.50000000000        2395.50000000000     
   2405.50000000000        2413.40000000000        2421.40000000000     
   2429.20000000000        2436.80000000000        2445.60000000000     
   2454.20000000000        2461.10000000000        2468.00000000000     
   2474.80000000000        2481.60000000000        2488.40000000000     
   2495.10000000000        2501.90000000000        2508.60000000000     
   2515.30000000000        2522.00000000000        2528.70000000000     
   2535.40000000000        2542.70000000000        2549.00000000000     
   2552.10000000000        2555.10000000000        2557.00000000000     
   2924.20000000000        2926.40000000000        2928.70000000000     
   2931.50000000000        2935.10000000000        2940.70000000000     
   2948.70000000000        2958.30000000000        2968.30000000000     
   2978.30000000000        2988.30000000000        2998.30000000000     
   3008.30000000000        3018.30000000000        3028.30000000000     
   3038.30000000000        3048.30000000000        3058.30000000000     
   3068.30000000000        3078.30000000000        3088.30000000000     
   3098.30000000000        3108.30000000000        3118.30000000000     
   3128.30000000000        3138.30000000000        3148.30000000000     
   3158.30000000000        3168.30000000000        3178.30000000000     
   3188.30000000000        3198.30000000000        3208.30000000000     
   3218.30000000000        3228.30000000000        3238.30000000000     
   3248.30000000000        3258.30000000000        3268.20000000000     
   3276.80000000000        3281.00000000000        3285.10000000000     
   3287.00000000000        3654.20000000000        3656.40000000000     
   3658.80000000000        3661.50000000000        3665.20000000000     
   3670.90000000000        3679.60000000000        3688.70000000000     
   3698.70000000000        3708.70000000000        3718.70000000000     
   3728.70000000000        3738.70000000000        3748.70000000000     
   3758.70000000000        3768.70000000000        3778.70000000000     
   3788.70000000000        3798.70000000000        3808.70000000000     
   3818.70000000000        3828.70000000000        3838.70000000000     
   3848.70000000000        3858.70000000000        3868.70000000000     
   3878.70000000000        3888.70000000000        3898.70000000000     
   3908.70000000000        3918.70000000000        3928.70000000000     
   3938.70000000000        3948.70000000000        3958.70000000000     
   3968.70000000000        3978.70000000000        3988.70000000000     
   3998.70000000000        4007.00000000000        4011.20000000000     
   4015.10000000000        4018.00000000000        4385.20000000000     
   4387.50000000000        4389.80000000000        4392.60000000000     
   4396.30000000000        4402.10000000000        4411.20000000000     
   4420.00000000000        4429.90000000000        4439.90000000000     
   4449.90000000000        4459.90000000000        4469.90000000000     
   4479.90000000000        4489.90000000000        4499.90000000000     
   4509.90000000000        4519.90000000000        4529.90000000000     
   4539.90000000000        4549.90000000000        4559.90000000000     
   4569.90000000000        4579.90000000000        4589.90000000000     
   4599.90000000000        4609.90000000000        4619.90000000000     
   4629.90000000000        4639.90000000000        4649.90000000000     
   4659.90000000000        4669.90000000000        4679.90000000000     
   4689.90000000000        4699.90000000000        4709.90000000000     
   4719.90000000000        4729.90000000000        4737.70000000000     
   4741.50000000000        4745.10000000000        4748.00000000000     
   5115.20000000000        5117.50000000000        5119.80000000000     
   5122.60000000000        5126.50000000000        5132.50000000000     
   5141.90000000000        5150.30000000000        5159.80000000000     
   5169.40000000000        5178.60000000000        5188.60000000000     
   5198.60000000000        5208.60000000000        5218.60000000000     
   5228.50000000000        5238.50000000000        5248.50000000000     
   5258.50000000000        5268.50000000000        5278.50000000000     
   5285.60000000000        5292.30000000000        5298.80000000000     
   5305.60000000000        5315.10000000000        5322.80000000000     
   5332.80000000000        5342.80000000000        5352.80000000000     
   5362.80000000000        5372.80000000000        5382.80000000000     
   5392.80000000000        5402.80000000000        5412.80000000000     
   5422.80000000000        5432.80000000000        5442.80000000000     
   5452.80000000000        5462.80000000000        5469.10000000000     
   5475.10000000000        5479.00000000000        5846.30000000000     
   5848.50000000000        5850.90000000000        5853.80000000000     
   5857.90000000000        5864.30000000000        5872.00000000000     
   5879.60000000000        5888.00000000000        5896.30000000000     
   5904.50000000000        5912.60000000000        5920.60000000000     
   5928.60000000000        5936.40000000000        5944.10000000000     
   5951.80000000000        5959.30000000000        5966.80000000000     
   5974.20000000000        5981.50000000000        5988.70000000000     
   5995.80000000000        6002.80000000000        6009.70000000000     
   6016.60000000000        6023.40000000000        6030.10000000000     
   6036.80000000000        6043.30000000000        6049.80000000000     
   6056.20000000000        6062.50000000000        6068.70000000000     
   6074.90000000000        6081.00000000000        6087.00000000000     
   6093.00000000000        6098.90000000000        6104.70000000000     
   6110.50000000000        6115.60000000000        6120.80000000000     
   6126.00000000000        6131.10000000000        6138.30000000000     
   6145.70000000000        6153.00000000000        6160.40000000000     
   6167.80000000000        6175.30000000000        6182.70000000000     
   6190.20000000000        6197.80000000000        6201.50000000000     
   6205.10000000000        6209.00000000000        6576.30000000000     
   6578.50000000000        6580.90000000000        6583.80000000000     
   6587.80000000000        6593.80000000000        6599.90000000000     
   6604.00000000000        6608.30000000000        6612.50000000000     
   6616.70000000000        6620.90000000000        6625.20000000000     
   6629.40000000000        6633.70000000000        6638.00000000000     
   6642.30000000000        6646.60000000000        6650.90000000000     
   6655.10000000000        6659.50000000000        6663.80000000000     
   6668.10000000000        6672.40000000000        6676.70000000000     
   6680.60000000000        6684.50000000000        6688.30000000000     
   6692.20000000000        6697.30000000000        6702.50000000000     
   6707.70000000000        6712.90000000000        6718.00000000000     
   6723.20000000000        6728.30000000000        6733.30000000000     
   6738.40000000000        6743.50000000000        6748.50000000000     
   6753.60000000000        6758.60000000000        6763.60000000000     
   6768.50000000000        6773.50000000000        6778.40000000000     
   6783.30000000000        6788.20000000000        6793.00000000000     
   6797.80000000000        6802.50000000000        6807.20000000000     
   6811.90000000000        6816.60000000000        6821.30000000000     
   6826.00000000000        6830.70000000000        6835.30000000000     
   6840.00000000000        6844.70000000000        6849.40000000000     
   6854.10000000000        6858.80000000000        6863.10000000000     
   6867.80000000000        6872.10000000000        6876.70000000000     
   6881.50000000000        6886.20000000000        6891.00000000000     
   6895.50000000000        6900.30000000000        6904.00000000000     
   6908.60000000000        6912.80000000000        6917.40000000000     
   6921.50000000000        6925.50000000000        6929.50000000000     
   6932.40000000000        6935.10000000000        6937.60000000000     
   6940.00000000000     
 
  0.000000000000000E+000  0.000000000000000E+000  0.000000000000000E+000
  0.000000000000000E+000  0.000000000000000E+000  0.000000000000000E+000
  0.000000000000000E+000  0.000000000000000E+000  0.000000000000000E+000
  0.000000000000000E+000  0.000000000000000E+000  0.000000000000000E+000
  0.000000000000000E+000  0.000000000000000E+000  0.000000000000000E+000
  0.000000000000000E+000  0.000000000000000E+000  0.000000000000000E+000
  0.000000000000000E+000  0.000000000000000E+000  0.000000000000000E+000
  0.000000000000000E+000  0.000000000000000E+000  0.000000000000000E+000
  0.000000000000000E+000  0.000000000000000E+000  0.000000000000000E+000
  0.000000000000000E+000  0.000000000000000E+000  0.000000000000000E+000
  0.000000000000000E+000  0.000000000000000E+000  0.000000000000000E+000
  0.000000000000000E+000  0.000000000000000E+000  0.000000000000000E+000
  0.000000000000000E+000  0.000000000000000E+000  0.000000000000000E+000
  0.000000000000000E+000  0.000000000000000E+000  0.000000000000000E+000
  0.000000000000000E+000  0.000000000000000E+000  0.000000000000000E+000
  0.000000000000000E+000  0.000000000000000E+000  0.000000000000000E+000
  0.000000000000000E+000  0.000000000000000E+000  0.000000000000000E+000
  0.000000000000000E+000  0.000000000000000E+000  0.000000000000000E+000
  0.000000000000000E+000  0.000000000000000E+000  0.000000000000000E+000
  0.000000000000000E+000  0.000000000000000E+000  0.000000000000000E+000
  0.000000000000000E+000  0.000000000000000E+000  0.000000000000000E+000
  0.000000000000000E+000  0.000000000000000E+000  0.000000000000000E+000
  0.000000000000000E+000  0.000000000000000E+000  0.000000000000000E+000
  0.000000000000000E+000  0.000000000000000E+000  0.000000000000000E+000
  0.000000000000000E+000  0.000000000000000E+000  0.000000000000000E+000
  0.000000000000000E+000  0.000000000000000E+000  0.000000000000000E+000
  0.000000000000000E+000  0.000000000000000E+000   12000.0000000000     
   12000.0000000000        12000.0000000000        12000.0000000000     
   12000.0000000000        12000.0000000000        12000.0000000000     
   12000.0000000000        12000.0000000000        12000.0000000000     
   12000.0000000000        12000.0000000000        12000.0000000000     
   12000.0000000000        12000.0000000000        12000.0000000000     
   12000.0000000000        12000.0000000000        12000.0000000000     
   12000.0000000000        12000.0000000000        12000.0000000000     
   12000.0000000000        12000.0000000000        12000.0000000000     
   12000.0000000000        12000.0000000000        12000.0000000000     
   12000.0000000000        12000.0000000000        12000.0000000000     
   12000.0000000000        12000.0000000000        12000.0000000000     
   12000.0000000000        12000.0000000000        12000.0000000000     
   12000.0000000000        12000.0000000000        12000.0000000000     
   12000.0000000000        12000.0000000000        12000.0000000000     
   12000.0000000000        12000.0000000000        12000.0000000000     
   12000.0000000000        12000.0000000000        12000.0000000000     
   12000.0000000000        12000.0000000000        12000.0000000000     
   12000.0000000000        12000.0000000000        12000.0000000000     
   12000.0000000000        12000.0000000000        12000.0000000000     
   12000.0000000000        12000.0000000000        12000.0000000000     
   12000.0000000000        12000.0000000000        12000.0000000000     
   12000.0000000000        12000.0000000000        12000.0000000000     
   12000.0000000000        12000.0000000000        12000.0000000000     
   12000.0000000000        12000.0000000000        12000.0000000000     
   12000.0000000000        12000.0000000000        12000.0000000000     
   12000.0000000000        12000.0000000000        12000.0000000000     
   12000.0000000000        12000.0000000000        12000.0000000000     
   12000.0000000000        12000.0000000000        12000.0000000000     
   12000.0000000000        12000.0000000000        12000.0000000000     
   12000.0000000000        12000.0000000000        12000.0000000000     
   12000.0000000000        12000.0000000000        12000.0000000000     
   12000.0000000000        12000.0000000000        12000.0000000000     
   12000.0000000000        12000.0000000000        12000.0000000000     
   12000.0000000000        12000.0000000000        12000.0000000000     
   12000.0000000000        12000.0000000000        12000.0000000000     
   12000.0000000000        12000.0000000000        12000.0000000000     
   12000.0000000000        12000.0000000000        12000.0000000000     
   12000.0000000000        12000.0000000000        12000.0000000000     
   12000.0000000000        12000.0000000000        12000.0000000000     
   12000.0000000000        12000.0000000000        12000.0000000000     
   12000.0000000000        12000.0000000000        12000.0000000000     
   12000.0000000000        12000.0000000000        12000.0000000000     
   12000.0000000000        12000.0000000000        12000.0000000000     
   12000.0000000000        12000.0000000000        12000.0000000000     
   12000.0000000000        12000.0000000000        12000.0000000000     
   12000.0000000000        12000.0000000000        12000.0000000000     
   12000.0000000000        12000.0000000000        12000.0000000000     
   12000.0000000000        12000.0000000000        12000.0000000000     
   12000.0000000000        12000.0000000000        12000.0000000000     
   12000.0000000000        12000.0000000000        12000.0000000000     
   12000.0000000000        12000.0000000000        12000.0000000000     
   12000.0000000000        12000.0000000000        12000.0000000000     
   12000.0000000000        12000.0000000000        12000.0000000000     
   12000.0000000000        12000.0000000000        12000.0000000000     
   12000.0000000000        12000.0000000000        12000.0000000000     
   12000.0000000000        12000.0000000000        12000.0000000000     
   12000.0000000000        12000.0000000000        12000.0000000000     
   12000.0000000000        12000.0000000000        12000.0000000000     
   12000.0000000000        12000.0000000000        12000.0000000000     
   12000.0000000000        12000.0000000000        12000.0000000000     
   12000.0000000000        12000.0000000000        12000.0000000000     
   12000.0000000000        12000.0000000000        12000.0000000000     
   12000.0000000000        12000.0000000000        12000.0000000000     
   12000.0000000000        12000.0000000000        12000.0000000000     
   12000.0000000000        12000.0000000000        12000.0000000000     
   12000.0000000000        12000.0000000000        12000.0000000000     
   12000.0000000000        12000.0000000000        12000.0000000000     
   12000.0000000000        12000.0000000000        12000.0000000000     
   12000.0000000000        12000.0000000000        12000.0000000000     
   12000.0000000000        12000.0000000000        12000.0000000000     
   12000.0000000000        12000.0000000000        12000.0000000000     
   12000.0000000000        12000.0000000000        12000.0000000000     
   12000.0000000000        12000.0000000000        12000.0000000000     
   12000.0000000000        12000.0000000000        12000.0000000000     
   12000.0000000000        12000.0000000000        12000.0000000000     
   12000.0000000000        12000.0000000000        12000.0000000000     
   12000.0000000000        12000.0000000000        12000.0000000000     
   12000.0000000000        12000.0000000000        12000.0000000000     
   12000.0000000000        12000.0000000000        12000.0000000000     
   12000.0000000000        12000.0000000000        12000.0000000000     
   12000.0000000000        12000.0000000000        12000.0000000000     
   12000.0000000000        12000.0000000000        12000.0000000000     
   12000.0000000000        12000.0000000000        12000.0000000000     
   12000.0000000000        12000.0000000000        12000.0000000000     
   12000.0000000000        12000.0000000000        12000.0000000000     
   12000.0000000000        12000.0000000000        12000.0000000000     
   12000.0000000000        12000.0000000000        12000.0000000000     
   12000.0000000000        12000.0000000000        12000.0000000000     
   12000.0000000000        12000.0000000000        12000.0000000000     
   12000.0000000000        12000.0000000000        12000.0000000000     
   12000.0000000000        12000.0000000000        12000.0000000000     
   12000.0000000000        12000.0000000000        12000.0000000000     
   12000.0000000000        12000.0000000000        12000.0000000000     
   12000.0000000000        12000.0000000000        12000.0000000000     
   12000.0000000000        12000.0000000000        12000.0000000000     
   12000.0000000000        12000.0000000000        12000.0000000000     
   12000.0000000000        12000.0000000000        12000.0000000000     
   12000.0000000000        12000.0000000000        12000.0000000000     
   12000.0000000000        12000.0000000000        12000.0000000000     
   12000.0000000000        12000.0000000000        12000.0000000000     
   12000.0000000000        12000.0000000000        12000.0000000000     
   12000.0000000000        12000.0000000000        12000.0000000000     
   12000.0000000000        12000.0000000000        12000.0000000000     
   12000.0000000000        12000.0000000000        12000.0000000000     
   12000.0000000000        12000.0000000000        12000.0000000000     
   12000.0000000000        12000.0000000000        12000.0000000000     
   12000.0000000000        12000.0000000000        12000.0000000000     
   12000.0000000000        12000.0000000000        12000.0000000000     
   12000.0000000000        12000.0000000000        12000.0000000000     
   12000.0000000000        12000.0000000000        12000.0000000000     
   12000.0000000000        12000.0000000000        12000.0000000000     
   12000.0000000000        12000.0000000000        12000.0000000000     
   12000.0000000000        12000.0000000000        12000.0000000000     
   12000.0000000000        12000.0000000000        12000.0000000000     
   12000.0000000000        12000.0000000000        12000.0000000000     
   12000.0000000000        12000.0000000000        12000.0000000000     
   12000.0000000000        12000.0000000000        12000.0000000000     
   12000.0000000000        12000.0000000000        12000.0000000000     
   12000.0000000000        12000.0000000000        12000.0000000000     
   12000.0000000000        12000.0000000000        12000.0000000000     
   12000.0000000000        12000.0000000000        12000.0000000000     
   12000.0000000000        12000.0000000000        12000.0000000000     
   12000.0000000000        12000.0000000000        12000.0000000000     
   12000.0000000000        12000.0000000000        12000.0000000000     
   12000.0000000000        12000.0000000000        12000.0000000000     
   12000.0000000000        12000.0000000000        12000.0000000000     
   12000.0000000000        12000.0000000000        12000.0000000000     
   12000.0000000000        12000.0000000000        12000.0000000000     
   12000.0000000000        12000.0000000000        12000.0000000000     
   12000.0000000000        12000.0000000000        12000.0000000000     
   12000.0000000000        12000.0000000000        12000.0000000000     
   12000.0000000000        12000.0000000000        12000.0000000000     
   12000.0000000000        12000.0000000000        12000.0000000000     
   12000.0000000000        12000.0000000000        12000.0000000000     
   12000.0000000000        12000.0000000000        12000.0000000000     
   12000.0000000000        12000.0000000000        12000.0000000000     
   12000.0000000000        12000.0000000000        12000.0000000000     
   12000.0000000000        12000.0000000000        12000.0000000000     
   12000.0000000000        12000.0000000000        12000.0000000000     
   12000.0000000000        12000.0000000000        12000.0000000000     
   12000.0000000000        12000.0000000000        12000.0000000000     
   12000.0000000000        12000.0000000000        12000.0000000000     
   12000.0000000000        12000.0000000000        12000.0000000000     
   12000.0000000000        12000.0000000000        12000.0000000000     
   12000.0000000000        12000.0000000000        12000.0000000000     
   12000.0000000000        12000.0000000000        12000.0000000000     
   12000.0000000000        12000.0000000000        12000.0000000000     
   12000.0000000000        12000.0000000000        12000.0000000000     
   12000.0000000000        12000.0000000000        12000.0000000000     
   12000.0000000000        12000.0000000000        12000.0000000000     
   12000.0000000000        12000.0000000000        12000.0000000000     
   12000.0000000000        12000.0000000000        12000.0000000000     
   12000.0000000000        12000.0000000000        12000.0000000000     
   12000.0000000000        12000.0000000000        12000.0000000000     
   12000.0000000000        12000.0000000000        12000.0000000000     
   12000.0000000000        12000.0000000000        12000.0000000000     
   12000.0000000000        12000.0000000000        12000.0000000000     
   12000.0000000000     
