 TITLE = "CUMULATIVE WATER PRODUCTION"
 VARIABLES = "Time [days]","Water Production [stb]",
 ZONE F=BLOCK, T="", I =        2471
   1.00000000000000        3.00000000000000        7.00000000000000     
   15.0000000000000        25.0000000000000        35.0000000000000     
   45.0000000000000        55.0000000000000        65.0000000000000     
   75.0000000000000        85.0000000000000        95.0000000000000     
   105.000000000000        115.000000000000        125.000000000000     
   135.000000000000        145.000000000000        155.000000000000     
   165.000000000000        175.000000000000        185.000000000000     
   195.000000000000        205.000000000000        215.000000000000     
   225.000000000000        235.000000000000        245.000000000000     
   255.000000000000        265.000000000000        275.000000000000     
   285.000000000000        295.000000000000        305.000000000000     
   315.000000000000        325.000000000000        335.000000000000     
   345.000000000000        355.000000000000        365.000000000000     
   375.000000000000        385.000000000000        395.000000000000     
   405.000000000000        415.000000000000        425.000000000000     
   435.000000000000        445.000000000000        455.000000000000     
   465.000000000000        475.000000000000        485.000000000000     
   495.000000000000        505.000000000000        515.000000000000     
   525.000000000000        535.000000000000        545.000000000000     
   555.000000000000        565.000000000000        575.000000000000     
   585.000000000000        595.000000000000        605.000000000000     
   615.000000000000        625.000000000000        635.000000000000     
   645.000000000000        655.000000000000        665.000000000000     
   675.000000000000        685.000000000000        695.000000000000     
   705.000000000000        715.000000000000        722.650000000000     
   730.000000000000        732.450000000000        734.670000000000     
   736.930000000000        739.460000000000        743.120000000000     
   748.380000000000        752.570000000000        757.270000000000     
   764.580000000000        769.050000000000        774.220000000000     
   779.320000000000        784.650000000000        790.430000000000     
   796.840000000000        803.920000000000        808.080000000000     
   812.300000000000        816.570000000000        820.880000000000     
   825.220000000000        829.590000000000        833.990000000000     
   838.420000000000        842.870000000000        847.350000000000     
   851.850000000000        860.670000000000        869.250000000000     
   877.890000000000        886.940000000000        896.940000000000     
   906.940000000000        916.750000000000        926.010000000000     
   934.900000000000        943.530000000000        951.960000000000     
   960.220000000000        968.360000000000        976.400000000000     
   984.340000000000        992.200000000000        999.980000000000     
   1007.70000000000        1015.40000000000        1023.00000000000     
   1030.50000000000        1038.00000000000        1045.50000000000     
   1052.90000000000        1060.30000000000        1067.70000000000     
   1075.70000000000        1083.60000000000        1089.40000000000     
   1095.00000000000        1096.00000000000        1096.50000000000     
   1097.00000000000        1097.80000000000        1098.40000000000     
   1099.00000000000        1099.50000000000        1100.30000000000     
   1100.90000000000        1101.60000000000        1102.40000000000     
   1103.40000000000        1104.10000000000        1104.80000000000     
   1105.30000000000        1106.10000000000        1106.80000000000     
   1107.40000000000        1108.30000000000        1109.10000000000     
   1109.90000000000        1111.00000000000        1112.00000000000     
   1113.10000000000        1114.20000000000        1115.30000000000     
   1116.30000000000        1117.40000000000        1118.50000000000     
   1119.60000000000        1120.80000000000        1121.90000000000     
   1122.30000000000        1123.00000000000        1123.80000000000     
   1125.00000000000        1125.80000000000        1126.90000000000     
   1127.80000000000        1128.80000000000        1130.00000000000     
   1131.10000000000        1132.40000000000        1133.70000000000     
   1135.10000000000        1136.50000000000        1138.00000000000     
   1139.60000000000        1141.20000000000        1143.00000000000     
   1145.00000000000        1146.80000000000        1149.10000000000     
   1151.60000000000        1154.40000000000        1156.60000000000     
   1160.00000000000        1161.90000000000        1164.70000000000     
   1167.30000000000        1171.90000000000        1174.00000000000     
   1176.90000000000        1179.60000000000        1184.50000000000     
   1186.60000000000        1189.50000000000        1192.20000000000     
   1195.30000000000        1199.90000000000        1203.10000000000     
   1207.90000000000        1217.60000000000        1220.60000000000     
   1225.50000000000        1228.60000000000        1232.70000000000     
   1235.50000000000        1238.20000000000        1242.80000000000     
   1250.80000000000        1254.00000000000        1260.50000000000     
   1263.70000000000        1268.70000000000        1275.00000000000     
   1277.50000000000        1280.40000000000        1285.70000000000     
   1288.00000000000        1291.00000000000        1297.10000000000     
   1307.10000000000        1310.50000000000        1313.10000000000     
   1318.00000000000        1321.40000000000        1326.50000000000     
   1328.90000000000        1330.50000000000        1333.70000000000     
   1337.80000000000        1340.40000000000        1343.60000000000     
   1348.80000000000        1351.40000000000        1356.50000000000     
   1359.10000000000        1364.20000000000        1366.80000000000     
   1369.80000000000        1372.40000000000        1376.60000000000     
   1378.80000000000        1381.40000000000        1384.20000000000     
   1387.10000000000        1392.00000000000        1394.40000000000     
   1397.40000000000        1400.00000000000        1404.30000000000     
   1406.50000000000        1407.90000000000        1410.60000000000     
   1416.00000000000        1420.20000000000        1423.50000000000     
   1426.40000000000        1432.00000000000        1434.30000000000     
   1437.00000000000        1442.20000000000        1451.30000000000     
   1453.90000000000        1457.00000000000        1458.50000000000     
   1460.00000000000        1461.00000000000        1463.00000000000     
   1465.40000000000        1467.80000000000        1471.40000000000     
   1475.60000000000        1478.30000000000        1483.10000000000     
   1485.30000000000        1488.60000000000        1491.20000000000     
   1494.30000000000        1496.90000000000        1501.10000000000     
   1504.50000000000        1507.50000000000        1510.50000000000     
   1514.90000000000        1518.40000000000        1525.30000000000     
   1527.90000000000        1530.60000000000        1533.40000000000     
   1535.60000000000        1537.00000000000        1539.70000000000     
   1545.20000000000        1548.60000000000        1551.20000000000     
   1555.70000000000        1558.20000000000        1563.40000000000     
   1566.00000000000        1570.80000000000        1572.90000000000     
   1575.50000000000        1580.70000000000        1583.20000000000     
   1585.00000000000        1588.60000000000        1591.20000000000     
   1595.80000000000        1598.50000000000        1602.80000000000     
   1607.40000000000        1610.00000000000        1614.50000000000     
   1616.70000000000        1619.50000000000        1621.30000000000     
   1623.80000000000        1628.10000000000        1630.20000000000     
   1632.90000000000        1635.50000000000        1638.20000000000     
   1640.40000000000        1641.70000000000        1644.20000000000     
   1646.90000000000        1649.80000000000        1655.70000000000     
   1658.20000000000        1660.80000000000        1663.00000000000     
   1664.30000000000        1666.90000000000        1672.20000000000     
   1674.70000000000        1676.80000000000        1679.50000000000     
   1682.10000000000        1686.60000000000        1689.20000000000     
   1691.70000000000        1695.80000000000        1697.90000000000     
   1699.20000000000        1701.80000000000        1707.00000000000     
   1717.00000000000        1727.00000000000        1729.50000000000     
   1734.30000000000        1736.20000000000        1739.50000000000     
   1741.10000000000        1744.10000000000        1750.00000000000     
   1752.90000000000        1754.50000000000        1757.80000000000     
   1759.90000000000        1762.50000000000        1764.10000000000     
   1767.40000000000        1770.00000000000        1772.50000000000     
   1775.00000000000        1780.10000000000        1782.70000000000     
   1787.30000000000        1789.80000000000        1794.50000000000     
   1796.60000000000        1799.10000000000        1804.20000000000     
   1806.60000000000        1811.60000000000        1817.20000000000     
   1820.80000000000        1822.40000000000        1823.70000000000     
   1825.00000000000        1826.00000000000        1826.60000000000     
   1827.20000000000        1828.00000000000        1829.10000000000     
   1830.70000000000        1833.20000000000        1836.00000000000     
   1838.50000000000        1842.30000000000        1846.10000000000     
   1848.20000000000        1851.90000000000        1854.50000000000     
   1856.10000000000        1858.40000000000        1860.30000000000     
   1864.10000000000        1865.60000000000        1868.50000000000     
   1872.00000000000        1874.50000000000        1878.90000000000     
   1880.90000000000        1885.00000000000        1886.60000000000     
   1889.60000000000        1892.20000000000        1896.70000000000     
   1899.40000000000        1901.30000000000        1903.90000000000     
   1906.40000000000        1911.30000000000        1915.90000000000     
   1918.60000000000        1920.70000000000        1922.10000000000     
   1924.70000000000        1927.30000000000        1930.00000000000     
   1934.20000000000        1936.80000000000        1941.40000000000     
   1943.50000000000        1946.50000000000        1952.50000000000     
   1954.60000000000        1957.20000000000        1960.60000000000     
   1963.20000000000        1968.40000000000        1970.90000000000     
   1975.20000000000        1977.40000000000        1980.20000000000     
   1982.80000000000        1987.30000000000        1989.50000000000     
   1992.60000000000        1997.90000000000        2003.20000000000     
   2008.50000000000        2011.20000000000        2013.90000000000     
   2019.30000000000        2021.90000000000        2026.20000000000     
   2028.40000000000        2029.70000000000        2032.40000000000     
   2032.50000000000        2032.80000000000        2033.40000000000     
   2034.60000000000        2034.80000000000        2035.10000000000     
   2035.70000000000        2036.90000000000        2039.40000000000     
   2039.60000000000        2039.80000000000        2040.40000000000     
   2041.50000000000        2043.70000000000        2048.10000000000     
   2050.60000000000        2054.90000000000        2057.00000000000     
   2059.60000000000        2062.30000000000        2066.70000000000     
   2068.90000000000        2071.90000000000        2074.50000000000     
   2077.20000000000        2079.90000000000        2082.60000000000     
   2085.80000000000        2088.40000000000        2093.00000000000     
   2095.60000000000        2098.30000000000        2103.70000000000     
   2104.00000000000        2104.60000000000        2105.70000000000     
   2108.00000000000        2112.70000000000        2115.30000000000     
   2119.80000000000        2122.00000000000        2124.80000000000     
   2130.40000000000        2133.00000000000        2138.20000000000     
   2148.20000000000        2150.60000000000        2155.40000000000     
   2158.00000000000        2160.60000000000        2164.80000000000     
   2167.00000000000        2169.70000000000        2172.20000000000     
   2176.70000000000        2178.90000000000        2183.30000000000     
   2185.90000000000        2188.00000000000        2190.00000000000     
   2191.00000000000        2193.00000000000        2195.40000000000     
   2197.80000000000        2200.60000000000        2203.20000000000     
   2205.50000000000        2208.20000000000        2210.00000000000     
   2212.70000000000        2215.30000000000        2218.10000000000     
   2220.30000000000        2221.60000000000        2224.30000000000     
   2229.00000000000        2231.60000000000        2233.80000000000     
   2236.50000000000        2239.00000000000        2242.00000000000     
   2243.80000000000        2246.80000000000        2252.10000000000     
   2254.80000000000        2257.40000000000        2262.60000000000     
   2265.60000000000        2266.90000000000        2269.50000000000     
   2274.00000000000        2276.60000000000        2281.80000000000     
   2284.30000000000        2286.50000000000        2287.90000000000     
   2290.50000000000        2293.10000000000        2297.70000000000     
   2300.30000000000        2304.90000000000        2307.60000000000     
   2312.20000000000        2321.30000000000        2323.80000000000     
   2328.00000000000        2330.10000000000        2332.80000000000     
   2334.50000000000        2337.00000000000        2339.20000000000     
   2341.80000000000        2344.40000000000        2346.60000000000     
   2349.30000000000        2351.80000000000        2353.90000000000     
   2355.30000000000        2357.90000000000        2360.40000000000     
   2363.00000000000        2365.20000000000        2366.60000000000     
   2369.20000000000        2372.10000000000        2374.70000000000     
   2377.30000000000        2379.50000000000        2382.00000000000     
   2384.90000000000        2390.80000000000        2393.40000000000     
   2395.50000000000        2398.20000000000        2400.70000000000     
   2403.30000000000        2406.20000000000        2408.80000000000     
   2413.40000000000        2416.00000000000        2420.50000000000     
   2429.50000000000        2431.90000000000        2436.30000000000     
   2444.30000000000        2447.30000000000        2453.20000000000     
   2455.80000000000        2458.40000000000        2461.80000000000     
   2468.70000000000        2478.60000000000        2480.80000000000     
   2484.90000000000        2486.80000000000        2489.40000000000     
   2491.00000000000        2494.00000000000        2498.10000000000     
   2500.60000000000        2505.70000000000        2515.70000000000     
   2525.70000000000        2528.10000000000        2531.40000000000     
   2534.00000000000        2539.10000000000        2541.60000000000     
   2546.70000000000        2550.50000000000        2555.00000000000     
   2557.00000000000        2557.50000000000        2558.10000000000     
   2558.90000000000        2559.90000000000        2561.50000000000     
   2563.90000000000        2566.60000000000        2569.10000000000     
   2572.80000000000        2576.40000000000        2580.00000000000     
   2581.90000000000        2583.90000000000        2587.00000000000     
   2588.70000000000        2590.60000000000        2594.40000000000     
   2596.00000000000        2598.90000000000        2602.40000000000     
   2603.60000000000        2605.90000000000        2609.60000000000     
   2612.10000000000        2614.80000000000        2616.90000000000     
   2619.40000000000        2623.50000000000        2625.50000000000     
   2628.20000000000        2629.80000000000        2632.00000000000     
   2634.60000000000        2638.00000000000        2640.20000000000     
   2641.60000000000        2644.30000000000        2649.40000000000     
   2652.00000000000        2656.20000000000        2658.30000000000     
   2661.00000000000        2662.60000000000        2666.00000000000     
   2667.90000000000        2670.50000000000        2672.30000000000     
   2675.80000000000        2678.00000000000        2680.60000000000     
   2682.30000000000        2685.90000000000        2688.00000000000     
   2690.60000000000        2692.40000000000        2695.90000000000     
   2697.80000000000        2700.50000000000        2702.30000000000     
   2705.00000000000        2707.20000000000        2708.50000000000     
   2711.20000000000        2715.90000000000        2718.50000000000     
   2722.70000000000        2724.90000000000        2727.60000000000     
   2729.40000000000        2732.10000000000        2736.70000000000     
   2745.90000000000        2748.30000000000        2752.50000000000     
   2754.50000000000        2757.20000000000        2759.00000000000     
   2762.40000000000        2765.10000000000        2770.60000000000     
   2776.80000000000        2779.40000000000        2783.60000000000     
   2786.30000000000        2788.50000000000        2789.90000000000     
   2792.60000000000        2795.30000000000        2797.90000000000     
   2800.60000000000        2805.30000000000        2807.90000000000     
   2812.50000000000        2818.30000000000        2820.90000000000     
   2825.30000000000        2828.60000000000        2831.60000000000     
   2837.70000000000        2847.70000000000        2857.70000000000     
   2867.70000000000        2870.40000000000        2875.80000000000     
   2878.40000000000        2882.30000000000        2886.30000000000     
   2894.30000000000        2904.30000000000        2906.40000000000     
   2909.50000000000        2911.30000000000        2914.00000000000     
   2917.00000000000        2920.00000000000        2922.00000000000     
   2924.40000000000        2926.70000000000        2929.20000000000     
   2932.00000000000        2937.10000000000        2939.70000000000     
   2942.40000000000        2947.20000000000        2955.20000000000     
   2957.70000000000        2959.40000000000        2962.80000000000     
   2964.90000000000        2967.50000000000        2969.30000000000     
   2971.90000000000        2973.70000000000        2977.10000000000     
   2979.60000000000        2982.20000000000        2983.90000000000     
   2987.40000000000        2989.60000000000        2992.20000000000     
   2994.80000000000        2997.40000000000        3002.50000000000     
   3005.00000000000        3006.70000000000        3009.30000000000     
   3011.90000000000        3014.70000000000        3016.80000000000     
   3019.40000000000        3021.20000000000        3023.80000000000     
   3026.00000000000        3028.50000000000        3031.10000000000     
   3033.20000000000        3035.90000000000        3038.50000000000     
   3040.60000000000        3043.30000000000        3047.70000000000     
   3050.30000000000        3052.90000000000        3055.00000000000     
   3057.50000000000        3060.10000000000        3062.80000000000     
   3065.40000000000        3067.50000000000        3070.10000000000     
   3072.70000000000        3075.30000000000        3079.80000000000     
   3082.40000000000        3084.60000000000        3087.10000000000     
   3089.70000000000        3094.20000000000        3096.90000000000     
   3101.40000000000        3110.40000000000        3120.40000000000     
   3130.40000000000        3140.40000000000        3150.40000000000     
   3160.40000000000        3170.40000000000        3180.40000000000     
   3190.40000000000        3200.40000000000        3210.40000000000     
   3220.40000000000        3230.40000000000        3240.40000000000     
   3250.40000000000        3260.40000000000        3270.40000000000     
   3277.80000000000        3285.00000000000        3287.00000000000     
   3287.30000000000        3287.60000000000        3288.00000000000     
   3288.60000000000        3289.50000000000        3291.00000000000     
   3292.50000000000        3294.30000000000        3296.10000000000     
   3297.90000000000        3299.70000000000        3301.40000000000     
   3303.20000000000        3305.00000000000        3306.80000000000     
   3308.70000000000        3310.50000000000        3312.30000000000     
   3314.20000000000        3316.00000000000        3317.90000000000     
   3319.90000000000        3321.90000000000        3323.90000000000     
   3325.90000000000        3328.00000000000        3330.10000000000     
   3332.20000000000        3334.40000000000        3336.70000000000     
   3339.00000000000        3341.30000000000        3343.80000000000     
   3346.30000000000        3348.90000000000        3351.60000000000     
   3354.40000000000        3357.20000000000        3360.20000000000     
   3363.30000000000        3366.50000000000        3369.70000000000     
   3373.10000000000        3376.70000000000        3380.30000000000     
   3384.00000000000        3387.90000000000        3391.90000000000     
   3395.90000000000        3400.10000000000        3404.30000000000     
   3408.60000000000        3413.00000000000        3417.50000000000     
   3421.90000000000        3426.40000000000        3431.00000000000     
   3435.50000000000        3440.00000000000        3444.50000000000     
   3449.00000000000        3453.40000000000        3457.90000000000     
   3462.30000000000        3466.60000000000        3471.00000000000     
   3475.30000000000        3479.50000000000        3483.70000000000     
   3487.90000000000        3492.10000000000        3496.20000000000     
   3500.30000000000        3504.30000000000        3508.30000000000     
   3512.30000000000        3516.30000000000        3520.20000000000     
   3524.10000000000        3528.00000000000        3531.80000000000     
   3535.50000000000        3539.30000000000        3543.00000000000     
   3546.70000000000        3550.30000000000        3554.00000000000     
   3557.60000000000        3561.10000000000        3564.70000000000     
   3568.20000000000        3571.70000000000        3575.20000000000     
   3578.60000000000        3582.00000000000        3585.40000000000     
   3588.80000000000        3592.10000000000        3595.40000000000     
   3598.70000000000        3602.00000000000        3605.20000000000     
   3608.40000000000        3611.60000000000        3614.80000000000     
   3617.90000000000        3621.00000000000        3624.10000000000     
   3627.20000000000        3630.20000000000        3633.30000000000     
   3636.20000000000        3639.20000000000        3642.20000000000     
   3645.10000000000        3647.60000000000        3648.80000000000     
   3650.00000000000        3652.00000000000        3654.80000000000     
   3657.10000000000        3659.60000000000        3662.40000000000     
   3666.40000000000        3671.40000000000        3676.10000000000     
   3680.70000000000        3685.10000000000        3689.40000000000     
   3693.50000000000        3697.50000000000        3701.50000000000     
   3705.40000000000        3709.20000000000        3713.10000000000     
   3716.80000000000        3720.40000000000        3723.90000000000     
   3727.40000000000        3730.60000000000        3733.00000000000     
   3734.80000000000        3736.90000000000        3739.10000000000     
   3741.60000000000        3742.90000000000        3744.40000000000     
   3745.90000000000        3747.70000000000        3749.50000000000     
   3751.60000000000        3753.80000000000        3756.20000000000     
   3758.70000000000        3761.30000000000        3764.20000000000     
   3767.10000000000        3770.30000000000        3773.70000000000     
   3777.20000000000        3781.00000000000        3784.90000000000     
   3789.00000000000        3793.30000000000        3797.80000000000     
   3802.50000000000        3807.30000000000        3812.20000000000     
   3817.20000000000        3822.40000000000        3827.70000000000     
   3833.20000000000        3838.80000000000        3844.60000000000     
   3850.60000000000        3856.80000000000        3863.10000000000     
   3869.60000000000        3876.20000000000        3882.90000000000     
   3889.80000000000        3896.80000000000        3904.00000000000     
   3912.10000000000        3920.60000000000        3929.50000000000     
   3938.70000000000        3948.40000000000        3958.40000000000     
   3968.40000000000        3978.40000000000        3988.40000000000     
   3998.40000000000        4006.90000000000        4011.00000000000     
   4015.00000000000        4018.00000000000        4018.00000000000     
   4018.10000000000        4018.20000000000        4018.40000000000     
   4018.60000000000        4018.90000000000        4019.40000000000     
   4019.90000000000        4020.60000000000        4021.30000000000     
   4022.30000000000        4023.20000000000        4024.10000000000     
   4025.00000000000        4026.00000000000        4026.90000000000     
   4027.80000000000        4028.70000000000        4029.60000000000     
   4030.50000000000        4031.40000000000        4032.20000000000     
   4033.10000000000        4034.00000000000        4034.90000000000     
   4035.80000000000        4036.70000000000        4037.50000000000     
   4038.40000000000        4039.30000000000        4040.20000000000     
   4041.10000000000        4041.90000000000        4042.80000000000     
   4043.70000000000        4044.60000000000        4045.50000000000     
   4046.30000000000        4047.20000000000        4048.10000000000     
   4049.00000000000        4049.90000000000        4050.80000000000     
   4051.70000000000        4052.60000000000        4053.60000000000     
   4054.50000000000        4055.40000000000        4056.30000000000     
   4057.30000000000        4058.20000000000        4059.20000000000     
   4060.10000000000        4061.10000000000        4062.00000000000     
   4063.00000000000        4064.00000000000        4065.00000000000     
   4066.00000000000        4067.00000000000        4068.00000000000     
   4069.00000000000        4070.00000000000        4071.10000000000     
   4072.10000000000        4073.20000000000        4074.20000000000     
   4075.30000000000        4076.40000000000        4077.50000000000     
   4078.60000000000        4079.80000000000        4080.90000000000     
   4082.10000000000        4083.30000000000        4084.50000000000     
   4085.80000000000        4087.00000000000        4088.30000000000     
   4089.60000000000        4090.90000000000        4092.20000000000     
   4093.50000000000        4094.80000000000        4096.20000000000     
   4097.50000000000        4098.70000000000        4099.90000000000     
   4101.00000000000        4102.00000000000        4102.90000000000     
   4103.90000000000        4104.80000000000        4105.80000000000     
   4106.80000000000        4107.90000000000        4108.90000000000     
   4110.00000000000        4111.10000000000        4112.20000000000     
   4113.30000000000        4114.50000000000        4115.60000000000     
   4116.70000000000        4117.90000000000        4119.00000000000     
   4120.10000000000        4121.20000000000        4122.30000000000     
   4123.40000000000        4124.40000000000        4125.50000000000     
   4126.50000000000        4127.60000000000        4128.60000000000     
   4129.70000000000        4130.70000000000        4131.80000000000     
   4132.80000000000        4133.80000000000        4134.80000000000     
   4135.80000000000        4136.80000000000        4137.80000000000     
   4138.80000000000        4139.80000000000        4140.80000000000     
   4141.70000000000        4142.70000000000        4143.70000000000     
   4144.60000000000        4145.60000000000        4146.50000000000     
   4147.40000000000        4148.40000000000        4149.30000000000     
   4150.20000000000        4151.10000000000        4152.00000000000     
   4152.90000000000        4153.80000000000        4154.70000000000     
   4155.60000000000        4156.50000000000        4157.40000000000     
   4158.30000000000        4159.20000000000        4160.10000000000     
   4161.00000000000        4161.90000000000        4162.80000000000     
   4163.70000000000        4164.70000000000        4165.60000000000     
   4166.60000000000        4167.50000000000        4168.50000000000     
   4169.50000000000        4170.50000000000        4171.60000000000     
   4172.60000000000        4173.70000000000        4174.70000000000     
   4175.80000000000        4176.90000000000        4178.00000000000     
   4179.20000000000        4180.40000000000        4181.50000000000     
   4182.70000000000        4183.90000000000        4185.10000000000     
   4186.30000000000        4187.60000000000        4188.80000000000     
   4190.00000000000        4191.30000000000        4192.60000000000     
   4193.80000000000        4195.10000000000        4196.40000000000     
   4197.70000000000        4199.10000000000        4200.40000000000     
   4201.80000000000        4203.20000000000        4204.60000000000     
   4206.00000000000        4207.40000000000        4208.90000000000     
   4210.30000000000        4211.90000000000        4213.40000000000     
   4214.90000000000        4216.50000000000        4218.10000000000     
   4219.80000000000        4221.40000000000        4223.10000000000     
   4224.80000000000        4226.60000000000        4228.30000000000     