 TITLE = "1D TEMP PLOT"
 VARIABLES = "Y [ft/ft]"," T [F/F]"
 ZONE F=BLOCK, T="", I =          100
        0.0050      0.0150      0.0250      0.0350      0.0450      0.0550
        0.0650      0.0750      0.0850      0.0950      0.1050      0.1150
        0.1250      0.1350      0.1450      0.1550      0.1650      0.1750
        0.1850      0.1950      0.2050      0.2150      0.2250      0.2350
        0.2450      0.2550      0.2650      0.2750      0.2850      0.2950
        0.3050      0.3150      0.3250      0.3350      0.3450      0.3550
        0.3650      0.3750      0.3850      0.3950      0.4050      0.4150
        0.4250      0.4350      0.4450      0.4550      0.4650      0.4750
        0.4850      0.4950      0.5050      0.5150      0.5250      0.5350
        0.5450      0.5550      0.5650      0.5750      0.5850      0.5950
        0.6050      0.6150      0.6250      0.6350      0.6450      0.6550
        0.6650      0.6750      0.6850      0.6950      0.7050      0.7150
        0.7250      0.7350      0.7450      0.7550      0.7650      0.7750
        0.7850      0.7950      0.8050      0.8150      0.8250      0.8350
        0.8450      0.8550      0.8650      0.8750      0.8850      0.8950
        0.9050      0.9150      0.9250      0.9350      0.9450      0.9550
        0.9650      0.9750      0.9850      0.9950
 
       60.0000     60.0000     60.0000     60.0000     60.0000     60.0000
       60.0000     60.0000     60.0000     60.0000     60.0000     60.0000
       60.0000     60.0000     60.0000     60.0000     60.0000     60.0000
       60.0000     60.0000     60.0000     60.0000     60.0000     60.0000
       60.0000     60.0000     60.0000     60.0000     60.0000     60.0000
       60.0000     60.0000     60.0000     60.0000     60.0000     60.0000
       60.0000     60.0000     60.0000     60.0000     60.0000     60.0000
       60.0000     60.0000     60.0000     60.0000     60.0000     60.0000
       60.0000     60.0000     60.0000     60.0000     60.0000     60.0000
       60.0000     60.0000     60.0000     60.0000     60.0000     60.0000
       60.0000     60.0000     60.0000     60.0000     60.0000     60.0000
       60.0000     60.0000     60.0000     60.0000     60.0000     60.0000
       60.0000     60.0000     60.0000     60.0000     60.0000     60.0000
       60.0000     60.0000     60.0000     60.0000     60.0000     60.0000
       60.0000     60.0000     60.0000     60.0000     60.0000     60.0000
       60.0000     60.0000     60.0000     60.0000     60.0000     60.0000
       60.0000     60.0000     60.0000     60.0000
 
 
 VARIABLES = "Y [ft/ft]"," T [F/F]"
 ZONE F=BLOCK, T="", I =          100
        0.0050      0.0150      0.0250      0.0350      0.0450      0.0550
        0.0650      0.0750      0.0850      0.0950      0.1050      0.1150
        0.1250      0.1350      0.1450      0.1550      0.1650      0.1750
        0.1850      0.1950      0.2050      0.2150      0.2250      0.2350
        0.2450      0.2550      0.2650      0.2750      0.2850      0.2950
        0.3050      0.3150      0.3250      0.3350      0.3450      0.3550
        0.3650      0.3750      0.3850      0.3950      0.4050      0.4150
        0.4250      0.4350      0.4450      0.4550      0.4650      0.4750
        0.4850      0.4950      0.5050      0.5150      0.5250      0.5350
        0.5450      0.5550      0.5650      0.5750      0.5850      0.5950
        0.6050      0.6150      0.6250      0.6350      0.6450      0.6550
        0.6650      0.6750      0.6850      0.6950      0.7050      0.7150
        0.7250      0.7350      0.7450      0.7550      0.7650      0.7750
        0.7850      0.7950      0.8050      0.8150      0.8250      0.8350
        0.8450      0.8550      0.8650      0.8750      0.8850      0.8950
        0.9050      0.9150      0.9250      0.9350      0.9450      0.9550
        0.9650      0.9750      0.9850      0.9950
 
       96.7933     88.2170     77.4754     68.6696     63.3189     60.7477
       59.8329     59.6232     59.7412     60.1421     61.0172     62.5690
       64.7621     67.0371     68.7760     69.7399     70.0763     70.0083
       69.7193     69.3239     68.8861     68.4373     67.9928     67.5593
       67.1401     66.7360     66.3477     65.9749     65.6177     65.2757
       64.9487     64.6365     64.3389     64.0554     63.7859     63.5299
       63.2872     63.0574     62.8401     62.6350     62.4416     62.2596
       62.0886     61.9281     61.7778     61.6371     61.5057     61.3831
       61.2689     61.1627     61.0640     60.9725     60.8877     60.8093
       60.7368     60.6699     60.6082     60.5515     60.4992     60.4513
       60.4072     60.3669     60.3299     60.2960     60.2650     60.2367
       60.2108     60.1872     60.1656     60.1460     60.1280     60.1116
       60.0967     60.0831     60.0706     60.0592     60.0488     60.0393
       60.0306     60.0226     60.0153     60.0085     60.0023     59.9965
       59.9911     59.9861     59.9815     59.9771     59.9730     59.9691
       59.9654     59.9619     59.9585     59.9552     59.9521     59.9490
       59.9460     59.9431     59.9401     59.9372
 
 
 VARIABLES = "Y [ft/ft]"," T [F/F]"
 ZONE F=BLOCK, T="", I =          100
        0.0050      0.0150      0.0250      0.0350      0.0450      0.0550
        0.0650      0.0750      0.0850      0.0950      0.1050      0.1150
        0.1250      0.1350      0.1450      0.1550      0.1650      0.1750
        0.1850      0.1950      0.2050      0.2150      0.2250      0.2350
        0.2450      0.2550      0.2650      0.2750      0.2850      0.2950
        0.3050      0.3150      0.3250      0.3350      0.3450      0.3550
        0.3650      0.3750      0.3850      0.3950      0.4050      0.4150
        0.4250      0.4350      0.4450      0.4550      0.4650      0.4750
        0.4850      0.4950      0.5050      0.5150      0.5250      0.5350
        0.5450      0.5550      0.5650      0.5750      0.5850      0.5950
        0.6050      0.6150      0.6250      0.6350      0.6450      0.6550
        0.6650      0.6750      0.6850      0.6950      0.7050      0.7150
        0.7250      0.7350      0.7450      0.7550      0.7650      0.7750
        0.7850      0.7950      0.8050      0.8150      0.8250      0.8350
        0.8450      0.8550      0.8650      0.8750      0.8850      0.8950
        0.9050      0.9150      0.9250      0.9350      0.9450      0.9550
        0.9650      0.9750      0.9850      0.9950
 
       99.8337     98.5274     95.0843     89.1976     81.8794     74.6181
       68.6887     64.5297     62.0167     60.7304     60.1832     60.0163
       60.0229     60.1022     60.2088     60.3227     60.4354     60.5440
       60.6485     60.7590     60.8925     61.1398     61.6029     62.7749
       65.2900     69.0068     72.6341     75.0270     76.1158     76.3431
       76.1212     75.6959     75.1893     74.6557     74.1185     73.5875
       73.0669     72.5584     72.0625     71.5795     71.1094     70.6520
       70.2074     69.7753     69.3556     68.9483     68.5531     68.1700
       67.7988     67.4393     67.0915     66.7551     66.4300     66.1162
       65.8133     65.5212     65.2399     64.9690     64.7084     64.4580
       64.2174     63.9866     63.7653     63.5532     63.3502     63.1560
       62.9704     62.7931     62.6239     62.4626     62.3088     62.1623
       62.0228     61.8902     61.7640     61.6441     61.5302     61.4219
       61.3191     61.2214     61.1286     61.0404     60.9566     60.8769
       60.8010     60.7287     60.6597     60.5938     60.5307     60.4702
       60.4120     60.3560     60.3017     60.2491     60.1979     60.1478
       60.0987     60.0502     60.0022     59.9544
 
 
 VARIABLES = "Y [ft/ft]"," T [F/F]"
 ZONE F=BLOCK, T="", I =          100
        0.0050      0.0150      0.0250      0.0350      0.0450      0.0550
        0.0650      0.0750      0.0850      0.0950      0.1050      0.1150
        0.1250      0.1350      0.1450      0.1550      0.1650      0.1750
        0.1850      0.1950      0.2050      0.2150      0.2250      0.2350
        0.2450      0.2550      0.2650      0.2750      0.2850      0.2950
        0.3050      0.3150      0.3250      0.3350      0.3450      0.3550
        0.3650      0.3750      0.3850      0.3950      0.4050      0.4150
        0.4250      0.4350      0.4450      0.4550      0.4650      0.4750
        0.4850      0.4950      0.5050      0.5150      0.5250      0.5350
        0.5450      0.5550      0.5650      0.5750      0.5850      0.5950
        0.6050      0.6150      0.6250      0.6350      0.6450      0.6550
        0.6650      0.6750      0.6850      0.6950      0.7050      0.7150
        0.7250      0.7350      0.7450      0.7550      0.7650      0.7750
        0.7850      0.7950      0.8050      0.8150      0.8250      0.8350
        0.8450      0.8550      0.8650      0.8750      0.8850      0.8950
        0.9050      0.9150      0.9250      0.9350      0.9450      0.9550
        0.9650      0.9750      0.9850      0.9950
 
      100.0249     99.9049     99.3625     97.7559     94.7234     90.1729
       84.4860     78.4061     72.8011     68.1731     64.8187     62.6082
       61.3086     60.6152     60.3358     60.2686     60.3069     60.3933
       60.4988     60.6098     60.7207     60.8295     60.9273     61.0485
       61.1679     61.2788     61.3848     61.4888     61.5918     61.6938
       61.7940     61.8935     61.9971     62.1661     62.4035     63.0318
       64.8852     68.8703     74.1559     78.4637     80.7981     81.5899
       81.5483     81.1387     80.5885     79.9930     79.3883     78.7881
       78.1971     77.6171     77.0486     76.4916     75.9461     75.4120
       74.8891     74.3774     73.8765     73.3865     72.9071     72.4383
       71.9798     71.5315     71.0934     70.6652     70.2467     69.8380
       69.4387     69.0488     68.6680     68.2963     67.9335     67.5793
       67.2336     66.8962     66.5669     66.2454     65.9317     65.6253
       65.3262     65.0340     64.7486     64.4695     64.1965     63.9294
       63.6678     63.4114     63.1598     62.9127     62.6698     62.4305
       62.1946     61.9616     61.7310     61.5024     61.2753     61.0491
       60.8234     60.5974     60.3708     60.1433
 
 
 VARIABLES = "Y [ft/ft]"," T [F/F]"
 ZONE F=BLOCK, T="", I =          100
        0.0050      0.0150      0.0250      0.0350      0.0450      0.0550
        0.0650      0.0750      0.0850      0.0950      0.1050      0.1150
        0.1250      0.1350      0.1450      0.1550      0.1650      0.1750
        0.1850      0.1950      0.2050      0.2150      0.2250      0.2350
        0.2450      0.2550      0.2650      0.2750      0.2850      0.2950
        0.3050      0.3150      0.3250      0.3350      0.3450      0.3550
        0.3650      0.3750      0.3850      0.3950      0.4050      0.4150
        0.4250      0.4350      0.4450      0.4550      0.4650      0.4750
        0.4850      0.4950      0.5050      0.5150      0.5250      0.5350
        0.5450      0.5550      0.5650      0.5750      0.5850      0.5950
        0.6050      0.6150      0.6250      0.6350      0.6450      0.6550
        0.6650      0.6750      0.6850      0.6950      0.7050      0.7150
        0.7250      0.7350      0.7450      0.7550      0.7650      0.7750
        0.7850      0.7950      0.8050      0.8150      0.8250      0.8350
        0.8450      0.8550      0.8650      0.8750      0.8850      0.8950
        0.9050      0.9150      0.9250      0.9350      0.9450      0.9550
        0.9650      0.9750      0.9850      0.9950
 
      100.0226    100.0303     99.9685     99.7051     98.9917     97.4135
       94.8096     91.0207     86.3062     81.1399     76.0199     71.3869
       67.6507     64.8123     62.8656     61.6424     60.9348     60.5921
       60.4708     60.4714     60.5345     60.6271     60.7311     60.8343
       60.9262     61.0546     61.1792     61.2963     61.4091     61.5190
       61.6269     61.7334     61.8385     61.9387     62.0210     62.1626
       62.2706     62.3726     62.4715     62.5701     62.6684     62.7640
       62.8552     62.9416     63.0246     63.1463     63.2856     63.6055
       64.6506     67.6747     73.3082     79.3333     83.3690     85.1767
       85.5837     85.3209     84.7884     84.1613     83.5070     82.8498
       82.1981     81.5545     80.9199     80.2943     79.6775     79.0694
       78.4698     77.8783     77.2948     76.7191     76.1508     75.5897
       75.0356     74.4882     73.9472     73.4123     72.8833     72.3598
       71.8415     71.3281     70.8192     70.3145     69.8135     69.3160
       68.8213     68.3292     67.8391     67.3505     66.8628     66.3755
       65.8879     65.3993     64.9091     64.4163     63.9201     63.4195
       62.9135     62.4007     61.8799     61.3510
 
 
 VARIABLES = "Y [ft/ft]"," T [F/F]"
 ZONE F=BLOCK, T="", I =          100
        0.0050      0.0150      0.0250      0.0350      0.0450      0.0550
        0.0650      0.0750      0.0850      0.0950      0.1050      0.1150
        0.1250      0.1350      0.1450      0.1550      0.1650      0.1750
        0.1850      0.1950      0.2050      0.2150      0.2250      0.2350
        0.2450      0.2550      0.2650      0.2750      0.2850      0.2950
        0.3050      0.3150      0.3250      0.3350      0.3450      0.3550
        0.3650      0.3750      0.3850      0.3950      0.4050      0.4150
        0.4250      0.4350      0.4450      0.4550      0.4650      0.4750
        0.4850      0.4950      0.5050      0.5150      0.5250      0.5350
        0.5450      0.5550      0.5650      0.5750      0.5850      0.5950
        0.6050      0.6150      0.6250      0.6350      0.6450      0.6550
        0.6650      0.6750      0.6850      0.6950      0.7050      0.7150
        0.7250      0.7350      0.7450      0.7550      0.7650      0.7750
        0.7850      0.7950      0.8050      0.8150      0.8250      0.8350
        0.8450      0.8550      0.8650      0.8750      0.8850      0.8950
        0.9050      0.9150      0.9250      0.9350      0.9450      0.9550
        0.9650      0.9750      0.9850      0.9950
 
      100.0128    100.0257    100.0322    100.0034     99.8735     99.5349
       98.7364     97.2862     94.9908     91.7828     87.7747     83.2785
       78.5945     74.1817     70.2786     67.1061     64.6976     62.9717
       61.8459     61.1858     60.7952     60.6392     60.6113     60.6532
       60.7297     60.8185     60.9066     61.0280     61.1544     61.2756
       61.3923     61.5057     61.6167     61.7254     61.8303     61.9268
       62.0103     62.1495     62.2651     62.3740     62.4793     62.5820
       62.6826     62.7806     62.8755     62.9658     63.0437     63.1458
       63.2437     63.3299     63.4090     63.4867     63.5651     63.6426
       63.7166     63.7861     63.8518     63.9161     64.0023     64.2044
       64.7151     66.4428     70.6349     76.7374     81.9990     85.0005
       86.1340     86.2216     85.8343     85.2567     84.6098     83.9407
       83.2663     82.5927     81.9216     81.2535     80.5884     79.9261
       79.2662     78.6084     77.9522     77.2974     76.6433     75.9897
       75.3360     74.6817     74.0263     73.3691     72.7095     72.0469
       71.3805     70.7095     70.0330     69.3499     68.6593     67.9597
       67.2499     66.5281     65.7924     65.0419
 
 
 VARIABLES = "Y [ft/ft]"," T [F/F]"
 ZONE F=BLOCK, T="", I =          100
        0.0050      0.0150      0.0250      0.0350      0.0450      0.0550
        0.0650      0.0750      0.0850      0.0950      0.1050      0.1150
        0.1250      0.1350      0.1450      0.1550      0.1650      0.1750
        0.1850      0.1950      0.2050      0.2150      0.2250      0.2350
        0.2450      0.2550      0.2650      0.2750      0.2850      0.2950
        0.3050      0.3150      0.3250      0.3350      0.3450      0.3550
        0.3650      0.3750      0.3850      0.3950      0.4050      0.4150
        0.4250      0.4350      0.4450      0.4550      0.4650      0.4750
        0.4850      0.4950      0.5050      0.5150      0.5250      0.5350
        0.5450      0.5550      0.5650      0.5750      0.5850      0.5950
        0.6050      0.6150      0.6250      0.6350      0.6450      0.6550
        0.6650      0.6750      0.6850      0.6950      0.7050      0.7150
        0.7250      0.7350      0.7450      0.7550      0.7650      0.7750
        0.7850      0.7950      0.8050      0.8150      0.8250      0.8350
        0.8450      0.8550      0.8650      0.8750      0.8850      0.8950
        0.9050      0.9150      0.9250      0.9350      0.9450      0.9550
        0.9650      0.9750      0.9850      0.9950
 
      100.0058    100.0126    100.0213    100.0271    100.0152     99.9517
       99.7767     99.4059     98.6042     97.2601     95.2142     92.4152
       88.9629     84.9755     80.7561     76.5744     72.7300     69.3454
       66.6367     64.5295     62.9939     61.9675     61.3384     60.9593
       60.7801     60.7293     60.7509     60.8095     60.8833     60.9602
       61.1172     61.2348     61.3532     61.4690     61.5818     61.6912
       61.7955     61.8922     61.9800     62.1057     62.2278     62.3419
       62.4509     62.5565     62.6590     62.7586     62.8543     62.9429
       63.0206     63.1194     63.2207     63.3142     63.4010     63.4838
       63.5643     63.6427     63.7185     63.7911     63.8606     63.9276
       63.9925     64.0499     64.1278     64.2062     64.2775     64.3445
       64.4103     64.4768     64.5452     64.6166     64.7028     64.8334
       65.1555     65.9712     68.1216     71.9891     76.3806     79.6778
       81.4131     81.9848     81.9138     81.5337     81.0183     80.4457
       79.8487     79.2405     78.6262     78.0078     77.3859     76.7606
       76.1318     75.4992     74.8626     74.2216     73.5760     72.9255
       72.2698     71.6087     70.9418     70.2686
 
 
 VARIABLES = "Y [ft/ft]"," T [F/F]"
 ZONE F=BLOCK, T="", I =          100
        0.0050      0.0150      0.0250      0.0350      0.0450      0.0550
        0.0650      0.0750      0.0850      0.0950      0.1050      0.1150
        0.1250      0.1350      0.1450      0.1550      0.1650      0.1750
        0.1850      0.1950      0.2050      0.2150      0.2250      0.2350
        0.2450      0.2550      0.2650      0.2750      0.2850      0.2950
        0.3050      0.3150      0.3250      0.3350      0.3450      0.3550
        0.3650      0.3750      0.3850      0.3950      0.4050      0.4150
        0.4250      0.4350      0.4450      0.4550      0.4650      0.4750
        0.4850      0.4950      0.5050      0.5150      0.5250      0.5350
        0.5450      0.5550      0.5650      0.5750      0.5850      0.5950
        0.6050      0.6150      0.6250      0.6350      0.6450      0.6550
        0.6650      0.6750      0.6850      0.6950      0.7050      0.7150
        0.7250      0.7350      0.7450      0.7550      0.7650      0.7750
        0.7850      0.7950      0.8050      0.8150      0.8250      0.8350
        0.8450      0.8550      0.8650      0.8750      0.8850      0.8950
        0.9050      0.9150      0.9250      0.9350      0.9450      0.9550
        0.9650      0.9750      0.9850      0.9950
 
       99.9999    100.0020    100.0059    100.0114    100.0159    100.0118
       99.9812     99.8907     99.6891     99.3156     98.5263     97.2862
       95.4523     93.0227     89.9610     86.4350     82.5781     78.6631
       74.9315     71.4767     68.5896     66.1613     64.3497     62.9637
       62.0341     61.4450     61.1112     60.8913     60.8237     60.8287
       60.8719     60.9325     61.0598     61.1819     61.3002     61.4165
       61.5300     61.6397     61.7443     61.8424     61.9328     62.0150
       62.1771     62.2883     62.3995     62.5073     62.6114     62.7117
       62.8071     62.8958     62.9757     63.0456     63.1658     63.2668
       63.3578     63.4439     63.5264     63.6059     63.6825     63.7562
       63.8272     63.8951     63.9582     64.0139     64.0609     64.1607
       64.2405     64.3116     64.3801     64.4480     64.5166     64.5866
       64.6587     64.7321     64.8067     64.8842     64.9670     65.0537
       65.1730     65.2861     65.3913     65.4986     65.6211     65.7873
       66.0663     66.6494     67.6665     69.2056     71.0526     72.7675
       74.0280     74.7827     75.1121     75.1476     75.0019     74.7523
       74.4466     74.1132     73.7692     73.4283
 
 
 VARIABLES = "Y [ft/ft]"," T [F/F]"
 ZONE F=BLOCK, T="", I =          100
        0.0050      0.0150      0.0250      0.0350      0.0450      0.0550
        0.0650      0.0750      0.0850      0.0950      0.1050      0.1150
        0.1250      0.1350      0.1450      0.1550      0.1650      0.1750
        0.1850      0.1950      0.2050      0.2150      0.2250      0.2350
        0.2450      0.2550      0.2650      0.2750      0.2850      0.2950
        0.3050      0.3150      0.3250      0.3350      0.3450      0.3550
        0.3650      0.3750      0.3850      0.3950      0.4050      0.4150
        0.4250      0.4350      0.4450      0.4550      0.4650      0.4750
        0.4850      0.4950      0.5050      0.5150      0.5250      0.5350
        0.5450      0.5550      0.5650      0.5750      0.5850      0.5950
        0.6050      0.6150      0.6250      0.6350      0.6450      0.6550
        0.6650      0.6750      0.6850      0.6950      0.7050      0.7150
        0.7250      0.7350      0.7450      0.7550      0.7650      0.7750
        0.7850      0.7950      0.8050      0.8150      0.8250      0.8350
        0.8450      0.8550      0.8650      0.8750      0.8850      0.8950
        0.9050      0.9150      0.9250      0.9350      0.9450      0.9550
        0.9650      0.9750      0.9850      0.9950
 
       99.9909     99.9902     99.9909     99.9927     99.9956     99.9984
       99.9972     99.9822     99.9349     99.8246     99.6120     99.2803
       98.4727     97.3469     95.6809     93.5245     90.8624     87.6630
       84.1164     80.5322     76.8613     73.5059     70.4515     67.9026
       65.7693     64.1044     62.9128     62.0579     61.5142     61.2044
       60.9798     60.8933     60.8844     60.9092     61.0091     61.1233
       61.2366     61.3496     61.4615     61.5706     61.6751     61.7738
       61.8652     61.9442     62.0866     62.2122     62.3246     62.4322
       62.5362     62.6362     62.7309     62.8192     62.8998     62.9709
       63.0264     63.1937     63.2791     63.3614     63.4426     63.5211
       63.5964     63.6686     63.7373     63.8019     63.8613     63.9147
       63.9619     64.0044     64.0849     64.2066     64.2547     64.3152
       64.3759     64.4364     64.4974     64.5589     64.6215     64.6848
       64.7491     64.8127     64.8768     64.9454     65.0220     65.1662
       65.2341     65.2993     65.3656     65.4291     65.4866     65.5346
       65.5713     65.5994     65.6411     65.7530     66.0183     66.5284
       67.2111     68.0296     68.9304     70.4343
 
 
 VARIABLES = "Y [ft/ft]"," T [F/F]"
 ZONE F=BLOCK, T="", I =          100
        0.0050      0.0150      0.0250      0.0350      0.0450      0.0550
        0.0650      0.0750      0.0850      0.0950      0.1050      0.1150
        0.1250      0.1350      0.1450      0.1550      0.1650      0.1750
        0.1850      0.1950      0.2050      0.2150      0.2250      0.2350
        0.2450      0.2550      0.2650      0.2750      0.2850      0.2950
        0.3050      0.3150      0.3250      0.3350      0.3450      0.3550
        0.3650      0.3750      0.3850      0.3950      0.4050      0.4150
        0.4250      0.4350      0.4450      0.4550      0.4650      0.4750
        0.4850      0.4950      0.5050      0.5150      0.5250      0.5350
        0.5450      0.5550      0.5650      0.5750      0.5850      0.5950
        0.6050      0.6150      0.6250      0.6350      0.6450      0.6550
        0.6650      0.6750      0.6850      0.6950      0.7050      0.7150
        0.7250      0.7350      0.7450      0.7550      0.7650      0.7750
        0.7850      0.7950      0.8050      0.8150      0.8250      0.8350
        0.8450      0.8550      0.8650      0.8750      0.8850      0.8950
        0.9050      0.9150      0.9250      0.9350      0.9450      0.9550
        0.9650      0.9750      0.9850      0.9950
 
       99.9935     99.9897     99.9868     99.9853     99.9851     99.9861
       99.9873     99.9867     99.9789     99.9531     99.8913     99.7703
       99.5717     99.3218     98.4525     97.4272     95.9566     94.0602
       91.5272     88.7579     85.5428     82.1254     78.7156     75.3787
       72.2903     69.5170     67.2559     65.4091     63.8998     62.8310
       62.0408     61.5564     61.2798     61.1401     60.8947     60.9064
       60.8964     61.1393     61.1989     61.2952     61.4015     61.5078
       61.6112     61.7095     61.8004     61.8773     61.9313     62.1683
       62.2725     62.3688     62.4686     62.5672     62.6615     62.7498
       62.8303     62.9016     62.9598     63.0057     63.2532     63.3004
       63.3714     63.4472     63.5207     63.5912     63.6581     63.7205
       63.7777     63.8288     63.8774     63.9236     63.9643     63.9930
       64.1652     64.2212     64.2640     64.3118     64.3624     64.4137
       64.4649     64.5158     64.5662     64.6161     64.6665     64.7195
       64.7757     64.8325     64.8883     64.9408     64.9900     65.0368
       65.0837     65.1327     65.1206     65.0999     65.0201     64.8910
       64.7433     64.6617     64.7552     65.5756
 
 
 VARIABLES = "Y [ft/ft]"," T [F/F]"
 ZONE F=BLOCK, T="", I =          100
        0.0050      0.0150      0.0250      0.0350      0.0450      0.0550
        0.0650      0.0750      0.0850      0.0950      0.1050      0.1150
        0.1250      0.1350      0.1450      0.1550      0.1650      0.1750
        0.1850      0.1950      0.2050      0.2150      0.2250      0.2350
        0.2450      0.2550      0.2650      0.2750      0.2850      0.2950
        0.3050      0.3150      0.3250      0.3350      0.3450      0.3550
        0.3650      0.3750      0.3850      0.3950      0.4050      0.4150
        0.4250      0.4350      0.4450      0.4550      0.4650      0.4750
        0.4850      0.4950      0.5050      0.5150      0.5250      0.5350
        0.5450      0.5550      0.5650      0.5750      0.5850      0.5950
        0.6050      0.6150      0.6250      0.6350      0.6450      0.6550
        0.6650      0.6750      0.6850      0.6950      0.7050      0.7150
        0.7250      0.7350      0.7450      0.7550      0.7650      0.7750
        0.7850      0.7950      0.8050      0.8150      0.8250      0.8350
        0.8450      0.8550      0.8650      0.8750      0.8850      0.8950
        0.9050      0.9150      0.9250      0.9350      0.9450      0.9550
        0.9650      0.9750      0.9850      0.9950
 
       99.9991     99.9958     99.9928     99.9901     99.9877     99.9861
       99.9854     99.9852     99.9843     99.9796     99.9649     99.9294
       99.8589     99.7417     99.5692     99.3897     98.4640     97.5277
       96.2824     94.4020     92.3357     89.6362     86.8099     83.6083
       80.2818     77.1074     74.0905     71.2197     68.7652     66.7436
       64.9735     63.7348     62.7320     62.0076     61.5812     61.3339
       61.2037     60.9432     60.8602     61.1306     61.1852     61.2620
       61.3596     61.4604     61.5607     61.6573     61.7457     61.8228
       61.8789     62.0790     62.2183     62.3241     62.4215     62.5162
       62.6086     62.6972     62.7781     62.8524     62.9191     62.9569
       63.1467     63.2575     63.3351     63.4064     63.4771     63.5465
       63.6129     63.6753     63.7332     63.7866     63.8357     63.8800
       63.9213     63.9561     63.9768     64.1850     64.2396     64.2749
       64.3159     64.3620     64.4093     64.4569     64.5042     64.5516
       64.5994     64.6485     64.6988     64.7496     64.8004     64.8497
       64.8967     64.9420     64.9815     65.0080     65.0112     64.9752
       64.8766     64.6888     64.4075     64.3090
 
 
 VARIABLES = "Y [ft/ft]"," T [F/F]"
 ZONE F=BLOCK, T="", I =          100
        0.0050      0.0150      0.0250      0.0350      0.0450      0.0550
        0.0650      0.0750      0.0850      0.0950      0.1050      0.1150
        0.1250      0.1350      0.1450      0.1550      0.1650      0.1750
        0.1850      0.1950      0.2050      0.2150      0.2250      0.2350
        0.2450      0.2550      0.2650      0.2750      0.2850      0.2950
        0.3050      0.3150      0.3250      0.3350      0.3450      0.3550
        0.3650      0.3750      0.3850      0.3950      0.4050      0.4150
        0.4250      0.4350      0.4450      0.4550      0.4650      0.4750
        0.4850      0.4950      0.5050      0.5150      0.5250      0.5350
        0.5450      0.5550      0.5650      0.5750      0.5850      0.5950
        0.6050      0.6150      0.6250      0.6350      0.6450      0.6550
        0.6650      0.6750      0.6850      0.6950      0.7050      0.7150
        0.7250      0.7350      0.7450      0.7550      0.7650      0.7750
        0.7850      0.7950      0.8050      0.8150      0.8250      0.8350
        0.8450      0.8550      0.8650      0.8750      0.8850      0.8950
        0.9050      0.9150      0.9250      0.9350      0.9450      0.9550
        0.9650      0.9750      0.9850      0.9950
 
       99.9997     99.9986     99.9971     99.9953     99.9931     99.9908
       99.9888     99.9871     99.9859     99.9844     99.9809     99.9717
       99.9504     99.9083     99.8356     99.7295     99.5896     99.4615