 TITLE = "CUMULATIVE OIL PRODUCTION"
 VARIABLES = "Time [days]","Oil Production [stb]",
 ZONE F=BLOCK, T="", I =         416
  0.100000000000000       0.300000000000000       0.700000000000000     
   1.50000000000000        3.10000000000000        6.30000000000000     
   12.7000000000000        22.7000000000000        32.7000000000000     
   42.7000000000000        52.7000000000000        62.7000000000000     
   72.7000000000000        82.1910000000000        91.3100000000000     
   94.5040000000000        98.7750000000000        103.820000000000     
   109.800000000000        116.650000000000        118.650000000000     
   120.630000000000        122.500000000000        124.360000000000     
   126.160000000000        128.050000000000        129.850000000000     
   131.580000000000        133.240000000000        134.830000000000     
   136.380000000000        137.880000000000        139.330000000000     
   140.750000000000        142.130000000000        143.480000000000     
   144.810000000000        146.110000000000        147.350000000000     
   148.650000000000        149.970000000000        151.300000000000     
   152.620000000000        153.950000000000        155.290000000000     
   156.620000000000        157.970000000000        159.320000000000     
   160.690000000000        162.060000000000        163.430000000000     
   164.800000000000        166.180000000000        167.560000000000     
   168.930000000000        170.310000000000        171.690000000000     
   173.060000000000        174.440000000000        175.810000000000     
   177.170000000000        178.530000000000        179.890000000000     
   181.230000000000        182.520000000000        183.890000000000     
   185.260000000000        186.640000000000        188.020000000000     
   189.400000000000        190.770000000000        192.130000000000     
   193.500000000000        194.850000000000        196.200000000000     
   197.540000000000        198.880000000000        200.230000000000     
   201.570000000000        202.910000000000        204.260000000000     
   205.610000000000        206.960000000000        208.320000000000     
   209.680000000000        211.040000000000        212.410000000000     
   213.770000000000        215.130000000000        216.490000000000     
   217.850000000000        219.210000000000        220.570000000000     
   221.920000000000        223.280000000000        224.630000000000     
   225.970000000000        227.310000000000        228.650000000000     
   229.970000000000        231.290000000000        232.600000000000     
   233.900000000000        235.190000000000        236.470000000000     
   238.110000000000        239.430000000000        240.980000000000     
   242.520000000000        244.050000000000        245.570000000000     
   247.090000000000        248.520000000000        249.950000000000     
   251.400000000000        252.860000000000        254.330000000000     
   255.800000000000        257.290000000000        258.780000000000     
   260.270000000000        261.770000000000        263.280000000000     
   264.800000000000        266.330000000000        267.850000000000     
   269.390000000000        270.920000000000        272.460000000000     
   273.730000000000        275.280000000000        276.830000000000     
   278.390000000000        279.960000000000        281.530000000000     
   283.100000000000        284.680000000000        286.270000000000     
   287.850000000000        289.440000000000        291.030000000000     
   292.620000000000        294.220000000000        295.810000000000     
   297.410000000000        299.000000000000        300.590000000000     
   302.190000000000        303.780000000000        305.370000000000     
   306.950000000000        308.540000000000        310.120000000000     
   311.690000000000        313.260000000000        314.820000000000     
   316.370000000000        317.920000000000        319.460000000000     
   321.000000000000        322.550000000000        324.090000000000     
   325.620000000000        327.150000000000        328.680000000000     
   330.200000000000        331.720000000000        333.240000000000     
   334.750000000000        336.260000000000        337.760000000000     
   339.250000000000        340.750000000000        342.240000000000     
   343.730000000000        345.220000000000        346.730000000000     
   348.230000000000        349.740000000000        351.250000000000     
   352.760000000000        354.270000000000        355.780000000000     
   357.300000000000        358.830000000000        360.380000000000     
   361.940000000000        363.500000000000        364.940000000000     
   366.510000000000        368.070000000000        369.640000000000     
   371.220000000000        372.790000000000        374.360000000000     
   375.940000000000        377.510000000000        379.100000000000     
   380.680000000000        382.260000000000        383.850000000000     
   385.440000000000        387.030000000000        388.630000000000     
   390.230000000000        391.840000000000        393.450000000000     
   395.070000000000        396.690000000000        398.310000000000     
   399.930000000000        401.560000000000        403.180000000000     
   404.800000000000        406.430000000000        408.050000000000     
   409.680000000000        411.300000000000        412.920000000000     
   414.540000000000        416.160000000000        417.780000000000     
   419.390000000000        421.000000000000        422.610000000000     
   424.220000000000        425.830000000000        427.440000000000     
   429.040000000000        430.650000000000        432.260000000000     
   433.860000000000        435.470000000000        437.070000000000     
   438.670000000000        440.280000000000        441.880000000000     
   443.480000000000        445.070000000000        446.670000000000     
   448.270000000000        449.880000000000        451.480000000000     
   453.090000000000        454.650000000000        456.150000000000     
   457.760000000000        459.880000000000        461.920000000000     
   463.860000000000        465.710000000000        467.500000000000     
   469.220000000000        470.890000000000        472.510000000000     
   474.140000000000        475.780000000000        477.420000000000     
   479.060000000000        480.710000000000        482.350000000000     
   484.000000000000        485.650000000000        487.290000000000     
   488.940000000000        490.590000000000        492.230000000000     
   493.870000000000        495.520000000000        497.160000000000     
   498.790000000000        500.430000000000        502.060000000000     
   503.700000000000        505.330000000000        506.950000000000     
   508.580000000000        510.200000000000        511.820000000000     
   513.430000000000        515.050000000000        516.660000000000     
   518.260000000000        519.870000000000        521.470000000000     
   523.070000000000        524.680000000000        526.290000000000     
   527.900000000000        529.520000000000        531.130000000000     
   532.750000000000        534.370000000000        535.990000000000     
   537.610000000000        539.230000000000        540.850000000000     
   542.470000000000        544.100000000000        545.760000000000     
   547.360000000000        548.980000000000        550.600000000000     
   552.230000000000        553.850000000000        555.470000000000     
   557.090000000000        558.710000000000        560.330000000000     
   561.940000000000        563.560000000000        565.170000000000     
   566.790000000000        568.400000000000        570.010000000000     
   571.610000000000        573.220000000000        574.820000000000     
   576.420000000000        578.020000000000        579.610000000000     
   581.210000000000        582.800000000000        584.400000000000     
   586.000000000000        587.610000000000        589.210000000000     
   590.810000000000        592.420000000000        594.020000000000     
   595.630000000000        597.230000000000        598.840000000000     
   600.440000000000        602.040000000000        603.640000000000     
   605.240000000000        606.840000000000        608.430000000000     
   610.030000000000        611.630000000000        613.230000000000     
   614.820000000000        616.420000000000        618.010000000000     
   619.610000000000        621.200000000000        622.800000000000     
   624.390000000000        625.980000000000        627.570000000000     
   629.160000000000        630.750000000000        632.330000000000     
   633.910000000000        635.490000000000        637.070000000000     
   638.570000000000        640.150000000000        641.730000000000     
   643.310000000000        644.900000000000        646.480000000000     
   648.070000000000        649.660000000000        651.250000000000     
   652.840000000000        654.430000000000        656.020000000000     
   657.610000000000        659.200000000000        660.790000000000     
   662.380000000000        663.960000000000        665.550000000000     
   667.140000000000        668.720000000000        670.300000000000     
   671.890000000000        673.470000000000        675.050000000000     
   676.620000000000        678.200000000000        679.780000000000     
   681.350000000000        682.930000000000        684.510000000000     
   686.090000000000        687.670000000000        689.250000000000     
   690.830000000000        692.400000000000        693.980000000000     
   695.550000000000        697.130000000000        698.700000000000     
   700.280000000000        701.850000000000        703.430000000000     
   705.010000000000        706.590000000000        708.160000000000     
   709.740000000000        711.320000000000        712.900000000000     
   714.480000000000        716.070000000000        717.650000000000     
   719.250000000000        720.840000000000        722.440000000000     
   724.040000000000        725.640000000000        727.750000000000     
   729.780000000000        730.000000000000     
 
   1200.00000000000        3600.00000000000        8400.00000000000     
   18000.0000000000        37200.0000000000        75600.0000000000     
   152400.000000000        272400.000000000        392400.000000000     
   512400.000000000        632400.000000000        752400.000000000     
   872400.000000000        986290.000000000        1095700.00000000     
   1134000.00000000        1185300.00000000        1245800.00000000     
   1317600.00000000        1399700.00000000        1423800.00000000     
   1447500.00000000        1470000.00000000        1492300.00000000     
   1513900.00000000        1536500.00000000        1558200.00000000     
   1579000.00000000        1598800.00000000        1618000.00000000     
   1636500.00000000        1654500.00000000        1672000.00000000     
   1689000.00000000        1705600.00000000        1721800.00000000     
   1737700.00000000        1753300.00000000        1768200.00000000     
   1783800.00000000        1799600.00000000        1815600.00000000     
   1831500.00000000        1847500.00000000        1863500.00000000     
   1879400.00000000        1895600.00000000        1911900.00000000     
   1928200.00000000        1944700.00000000        1961200.00000000     
   1977700.00000000        1994200.00000000        2010700.00000000     
   2027200.00000000        2043700.00000000        2060200.00000000     
   2076700.00000000        2093200.00000000        2109700.00000000     
   2126100.00000000        2142400.00000000        2158600.00000000     
   2174800.00000000        2190200.00000000        2206600.00000000     
   2223100.00000000        2239700.00000000        2256200.00000000     
   2272800.00000000        2289200.00000000        2305600.00000000     
   2321900.00000000        2338200.00000000        2354400.00000000     
   2370400.00000000        2386600.00000000        2402700.00000000     
   2418800.00000000        2434900.00000000        2451100.00000000     
   2467300.00000000        2483500.00000000        2499800.00000000     
   2516200.00000000        2532500.00000000        2548900.00000000     
   2565200.00000000        2581600.00000000        2597900.00000000     
   2614200.00000000        2630500.00000000        2646800.00000000     
   2663100.00000000        2679300.00000000        2695600.00000000     
   2711700.00000000        2727800.00000000        2743800.00000000     
   2759700.00000000        2775500.00000000        2791200.00000000     
   2806800.00000000        2822300.00000000        2837600.00000000     
   2857300.00000000        2873100.00000000        2891800.00000000     
   2910200.00000000        2928600.00000000        2946900.00000000     
   2965100.00000000        2982200.00000000        2999500.00000000     
   3016800.00000000        3034300.00000000        3051900.00000000     
   3069600.00000000        3087400.00000000        3105300.00000000     
   3123300.00000000        3141300.00000000        3159400.00000000     
   3177600.00000000        3195900.00000000        3214300.00000000     
   3232700.00000000        3251100.00000000        3269500.00000000     
   3284800.00000000        3303300.00000000        3322000.00000000     
   3340700.00000000        3359500.00000000        3378300.00000000     
   3397200.00000000        3416200.00000000        3435200.00000000     
   3454200.00000000        3473300.00000000        3492400.00000000     
   3511500.00000000        3530600.00000000        3549700.00000000     
   3568900.00000000        3588000.00000000        3607100.00000000     
   3626200.00000000        3645300.00000000        3664400.00000000     
   3683400.00000000        3702400.00000000        3721400.00000000     
   3740300.00000000        3759100.00000000        3777800.00000000     
   3796400.00000000        3815000.00000000        3833500.00000000     
   3852100.00000000        3870600.00000000        3889000.00000000     
   3907500.00000000        3925800.00000000        3944200.00000000     
   3962500.00000000        3980700.00000000        3998900.00000000     
   4017000.00000000        4035100.00000000        4053100.00000000     
   4071000.00000000        4089000.00000000        4106800.00000000     
   4124700.00000000        4142700.00000000        4160700.00000000     
   4178800.00000000        4196900.00000000        4215000.00000000     
   4233100.00000000        4251300.00000000        4269400.00000000     
   4287500.00000000        4306000.00000000        4324600.00000000     
   4343300.00000000        4362000.00000000        4379300.00000000     
   4398100.00000000        4416900.00000000        4435700.00000000     
   4454600.00000000        4473500.00000000        4492400.00000000     
   4511300.00000000        4530200.00000000        4549100.00000000     
   4568100.00000000        4587200.00000000        4606200.00000000     
   4625300.00000000        4644400.00000000        4663500.00000000     
   4682800.00000000        4702100.00000000        4721400.00000000     
   4740800.00000000        4760200.00000000        4779700.00000000     
   4799200.00000000        4818700.00000000        4838200.00000000     
   4857700.00000000        4877100.00000000        4896600.00000000     
   4916100.00000000        4935600.00000000        4955000.00000000     
   4974500.00000000        4993900.00000000        5013300.00000000     
   5032700.00000000        5052000.00000000        5071400.00000000     
   5090700.00000000        5110000.00000000        5129200.00000000     
   5148500.00000000        5167800.00000000        5187100.00000000     
   5206400.00000000        5225600.00000000        5244900.00000000     
   5264100.00000000        5283300.00000000        5302500.00000000     
   5321700.00000000        5340900.00000000        5360100.00000000     
   5379300.00000000        5398500.00000000        5417800.00000000     
   5437100.00000000        5455800.00000000        5473800.00000000     
   5493100.00000000        5518600.00000000        5543000.00000000     
   5566300.00000000        5588600.00000000        5610000.00000000     
   5630600.00000000        5650600.00000000        5670100.00000000     
   5689700.00000000        5709400.00000000        5729000.00000000     
   5748800.00000000        5768500.00000000        5788200.00000000     
   5808000.00000000        5827800.00000000        5847500.00000000     
   5867300.00000000        5887000.00000000        5906800.00000000     
   5926500.00000000        5946200.00000000        5965900.00000000     
   5985500.00000000        6005200.00000000        6024800.00000000     
   6044400.00000000        6063900.00000000        6083400.00000000     
   6102900.00000000        6122400.00000000        6141800.00000000     
   6161200.00000000        6180600.00000000        6199900.00000000     
   6219200.00000000        6238400.00000000        6257600.00000000     
   6276900.00000000        6296200.00000000        6315500.00000000     
   6334800.00000000        6354200.00000000        6373600.00000000     
   6393000.00000000        6412400.00000000        6431900.00000000     
   6451300.00000000        6470800.00000000        6490200.00000000     
   6509700.00000000        6529200.00000000        6549100.00000000     
   6568300.00000000        6587800.00000000        6607300.00000000     
   6626700.00000000        6646200.00000000        6665600.00000000     
   6685100.00000000        6704500.00000000        6723900.00000000     
   6743300.00000000        6762700.00000000        6782100.00000000     
   6801400.00000000        6820800.00000000        6840100.00000000     
   6859400.00000000        6878600.00000000        6897800.00000000     
   6917000.00000000        6936200.00000000        6955300.00000000     
   6974500.00000000        6993600.00000000        7012800.00000000     
   7032000.00000000        7051300.00000000        7070500.00000000     
   7089800.00000000        7109000.00000000        7128300.00000000     
   7147500.00000000        7166800.00000000        7186000.00000000     
   7205300.00000000        7224500.00000000        7243700.00000000     
   7262900.00000000        7282000.00000000        7301200.00000000     
   7320400.00000000        7339500.00000000        7358700.00000000     
   7377900.00000000        7397000.00000000        7416200.00000000     
   7435300.00000000        7454400.00000000        7473600.00000000     
   7492700.00000000        7511800.00000000        7530800.00000000     
   7549900.00000000        7568900.00000000        7588000.00000000     
   7607000.00000000        7625900.00000000        7644900.00000000     
   7662800.00000000        7681800.00000000        7700800.00000000     
   7719700.00000000        7738800.00000000        7757800.00000000     
   7776900.00000000        7795900.00000000        7815000.00000000     
   7834100.00000000        7853200.00000000        7872200.00000000     
   7891300.00000000        7910400.00000000        7929400.00000000     
   7948500.00000000        7967600.00000000        7986600.00000000     
   8005600.00000000        8024600.00000000        8043600.00000000     
   8062600.00000000        8081600.00000000        8100600.00000000     
   8119500.00000000        8138400.00000000        8157300.00000000     
   8176200.00000000        8195200.00000000        8214200.00000000     
   8233100.00000000        8252000.00000000        8271000.00000000     
   8289900.00000000        8308800.00000000        8327700.00000000     
   8346600.00000000        8365500.00000000        8384400.00000000     
   8403300.00000000        8422200.00000000        8441200.00000000     
   8460100.00000000        8479000.00000000        8498000.00000000     
   8516900.00000000        8535900.00000000        8554800.00000000     
   8573800.00000000        8592800.00000000        8611900.00000000     
   8630900.00000000        8650100.00000000        8669200.00000000     
   8688400.00000000        8707600.00000000        8733000.00000000     
   8757400.00000000        8760000.00000000     
