 TITLE = "1D TEMP PLOT"
 VARIABLES = "Y [ft/ft]"," T [F/F]"
 ZONE F=BLOCK, T="", I =          100
        0.0050      0.0150      0.0250      0.0350      0.0450      0.0550
        0.0650      0.0750      0.0850      0.0950      0.1050      0.1150
        0.1250      0.1350      0.1450      0.1550      0.1650      0.1750
        0.1850      0.1950      0.2050      0.2150      0.2250      0.2350
        0.2450      0.2550      0.2650      0.2750      0.2850      0.2950
        0.3050      0.3150      0.3250      0.3350      0.3450      0.3550
        0.3650      0.3750      0.3850      0.3950      0.4050      0.4150
        0.4250      0.4350      0.4450      0.4550      0.4650      0.4750
        0.4850      0.4950      0.5050      0.5150      0.5250      0.5350
        0.5450      0.5550      0.5650      0.5750      0.5850      0.5950
        0.6050      0.6150      0.6250      0.6350      0.6450      0.6550
        0.6650      0.6750      0.6850      0.6950      0.7050      0.7150
        0.7250      0.7350      0.7450      0.7550      0.7650      0.7750
        0.7850      0.7950      0.8050      0.8150      0.8250      0.8350
        0.8450      0.8550      0.8650      0.8750      0.8850      0.8950
        0.9050      0.9150      0.9250      0.9350      0.9450      0.9550
        0.9650      0.9750      0.9850      0.9950
 
       60.0000     60.0000     60.0000     60.0000     60.0000     60.0000
       60.0000     60.0000     60.0000     60.0000     60.0000     60.0000
       60.0000     60.0000     60.0000     60.0000     60.0000     60.0000
       60.0000     60.0000     60.0000     60.0000     60.0000     60.0000
       60.0000     60.0000     60.0000     60.0000     60.0000     60.0000
       60.0000     60.0000     60.0000     60.0000     60.0000     60.0000
       60.0000     60.0000     60.0000     60.0000     60.0000     60.0000
       60.0000     60.0000     60.0000     60.0000     60.0000     60.0000
       60.0000     60.0000     60.0000     60.0000     60.0000     60.0000
       60.0000     60.0000     60.0000     60.0000     60.0000     60.0000
       60.0000     60.0000     60.0000     60.0000     60.0000     60.0000
       60.0000     60.0000     60.0000     60.0000     60.0000     60.0000
       60.0000     60.0000     60.0000     60.0000     60.0000     60.0000
       60.0000     60.0000     60.0000     60.0000     60.0000     60.0000
       60.0000     60.0000     60.0000     60.0000     60.0000     60.0000
       60.0000     60.0000     60.0000     60.0000     60.0000     60.0000
       60.0000     60.0000     60.0000     60.0000
 
 
 VARIABLES = "Y [ft/ft]"," T [F/F]"
 ZONE F=BLOCK, T="", I =          100
        0.0050      0.0150      0.0250      0.0350      0.0450      0.0550
        0.0650      0.0750      0.0850      0.0950      0.1050      0.1150
        0.1250      0.1350      0.1450      0.1550      0.1650      0.1750
        0.1850      0.1950      0.2050      0.2150      0.2250      0.2350
        0.2450      0.2550      0.2650      0.2750      0.2850      0.2950
        0.3050      0.3150      0.3250      0.3350      0.3450      0.3550
        0.3650      0.3750      0.3850      0.3950      0.4050      0.4150
        0.4250      0.4350      0.4450      0.4550      0.4650      0.4750
        0.4850      0.4950      0.5050      0.5150      0.5250      0.5350
        0.5450      0.5550      0.5650      0.5750      0.5850      0.5950
        0.6050      0.6150      0.6250      0.6350      0.6450      0.6550
        0.6650      0.6750      0.6850      0.6950      0.7050      0.7150
        0.7250      0.7350      0.7450      0.7550      0.7650      0.7750
        0.7850      0.7950      0.8050      0.8150      0.8250      0.8350
        0.8450      0.8550      0.8650      0.8750      0.8850      0.8950
        0.9050      0.9150      0.9250      0.9350      0.9450      0.9550
        0.9650      0.9750      0.9850      0.9950
 
       65.0254     60.2022     59.9690     60.0044     60.0038     60.0013
       59.9989     59.9966     59.9942     59.9918     59.9894     59.9870
       59.9847     59.9823     59.9799     59.9775     59.9751     59.9727
       59.9703     59.9678     59.9654     59.9630     59.9606     59.9581
       59.9557     59.9533     59.9508     59.9483     59.9459     59.9434
       59.9409     59.9384     59.9359     59.9334     59.9309     59.9283
       59.9258     59.9233     59.9207     59.9181     59.9155     59.9130
       59.9104     59.9077     59.9051     59.9025     59.8998     59.8972
       59.8945     59.8918     59.8891     59.8864     59.8837     59.8809
       59.8782     59.8754     59.8727     59.8699     59.8671     59.8642
       59.8614     59.8586     59.8557     59.8528     59.8499     59.8470
       59.8441     59.8412     59.8382     59.8352     59.8323     59.8293
       59.8263     59.8232     59.8202     59.8171     59.8140     59.8109
       59.8078     59.8047     59.8016     59.7984     59.7952     59.7920
       59.7888     59.7856     59.7824     59.7791     59.7759     59.7726
       59.7693     59.7659     59.7626     59.7592     59.7559     59.7525
       59.7491     59.7456     59.7442     59.6823
 
 
 VARIABLES = "Y [ft/ft]"," T [F/F]"
 ZONE F=BLOCK, T="", I =          100
        0.0050      0.0150      0.0250      0.0350      0.0450      0.0550
        0.0650      0.0750      0.0850      0.0950      0.1050      0.1150
        0.1250      0.1350      0.1450      0.1550      0.1650      0.1750
        0.1850      0.1950      0.2050      0.2150      0.2250      0.2350
        0.2450      0.2550      0.2650      0.2750      0.2850      0.2950
        0.3050      0.3150      0.3250      0.3350      0.3450      0.3550
        0.3650      0.3750      0.3850      0.3950      0.4050      0.4150
        0.4250      0.4350      0.4450      0.4550      0.4650      0.4750
        0.4850      0.4950      0.5050      0.5150      0.5250      0.5350
        0.5450      0.5550      0.5650      0.5750      0.5850      0.5950
        0.6050      0.6150      0.6250      0.6350      0.6450      0.6550
        0.6650      0.6750      0.6850      0.6950      0.7050      0.7150
        0.7250      0.7350      0.7450      0.7550      0.7650      0.7750
        0.7850      0.7950      0.8050      0.8150      0.8250      0.8350
        0.8450      0.8550      0.8650      0.8750      0.8850      0.8950
        0.9050      0.9150      0.9250      0.9350      0.9450      0.9550
        0.9650      0.9750      0.9850      0.9950
 
       72.3737     61.5047     59.8241     59.9567     60.0034     60.0010
       59.9977     59.9950     59.9923     59.9896     59.9869     59.9843
       59.9816     59.9789     59.9762     59.9735     59.9709     59.9682
       59.9655     59.9628     59.9602     59.9575     59.9548     59.9521
       59.9494     59.9468     59.9441     59.9414     59.9387     59.9360
       59.9334     59.9307     59.9280     59.9253     59.9226     59.9199
       59.9172     59.9146     59.9119     59.9092     59.9065     59.9038
       59.9011     59.8984     59.8957     59.8930     59.8903     59.8876
       59.8849     59.8822     59.8794     59.8767     59.8740     59.8713
       59.8686     59.8658     59.8631     59.8604     59.8576     59.8549
       59.8521     59.8494     59.8466     59.8439     59.8411     59.8383
       59.8356     59.8328     59.8300     59.8272     59.8244     59.8216
       59.8188     59.8160     59.8132     59.8104     59.8075     59.8047
       59.8018     59.7990     59.7961     59.7932     59.7903     59.7874
       59.7845     59.7816     59.7787     59.7757     59.7728     59.7698
       59.7669     59.7639     59.7609     59.7579     59.7548     59.7518
       59.7487     59.7455     59.7462     59.6925
 
 
 VARIABLES = "Y [ft/ft]"," T [F/F]"
 ZONE F=BLOCK, T="", I =          100
        0.0050      0.0150      0.0250      0.0350      0.0450      0.0550
        0.0650      0.0750      0.0850      0.0950      0.1050      0.1150
        0.1250      0.1350      0.1450      0.1550      0.1650      0.1750
        0.1850      0.1950      0.2050      0.2150      0.2250      0.2350
        0.2450      0.2550      0.2650      0.2750      0.2850      0.2950
        0.3050      0.3150      0.3250      0.3350      0.3450      0.3550
        0.3650      0.3750      0.3850      0.3950      0.4050      0.4150
        0.4250      0.4350      0.4450      0.4550      0.4650      0.4750
        0.4850      0.4950      0.5050      0.5150      0.5250      0.5350
        0.5450      0.5550      0.5650      0.5750      0.5850      0.5950
        0.6050      0.6150      0.6250      0.6350      0.6450      0.6550
        0.6650      0.6750      0.6850      0.6950      0.7050      0.7150
        0.7250      0.7350      0.7450      0.7550      0.7650      0.7750
        0.7850      0.7950      0.8050      0.8150      0.8250      0.8350
        0.8450      0.8550      0.8650      0.8750      0.8850      0.8950
        0.9050      0.9150      0.9250      0.9350      0.9450      0.9550
        0.9650      0.9750      0.9850      0.9950
 
       78.7958     63.8498     59.8663     59.8273     59.9873     60.0042
       59.9988     59.9955     59.9928     59.9901     59.9874     59.9847
       59.9820     59.9793     59.9767     59.9740     59.9713     59.9686
       59.9659     59.9632     59.9605     59.9578     59.9552     59.9525
       59.9498     59.9471     59.9444     59.9417     59.9390     59.9363
       59.9336     59.9310     59.9283     59.9256     59.9229     59.9202
       59.9175     59.9148     59.9121     59.9094     59.9067     59.9040
       59.9013     59.8986     59.8959     59.8932     59.8905     59.8878
       59.8851     59.8824     59.8797     59.8770     59.8742     59.8715
       59.8688     59.8661     59.8633     59.8606     59.8579     59.8551
       59.8524     59.8497     59.8469     59.8442     59.8414     59.8386
       59.8359     59.8331     59.8303     59.8275     59.8248     59.8220
       59.8192     59.8164     59.8135     59.8107     59.8079     59.8051
       59.8022     59.7994     59.7965     59.7937     59.7908     59.7879
       59.7850     59.7821     59.7792     59.7763     59.7733     59.7704
       59.7674     59.7644     59.7614     59.7584     59.7554     59.7524
       59.7494     59.7460     59.7479     59.7012
 
 
 VARIABLES = "Y [ft/ft]"," T [F/F]"
 ZONE F=BLOCK, T="", I =          100
        0.0050      0.0150      0.0250      0.0350      0.0450      0.0550
        0.0650      0.0750      0.0850      0.0950      0.1050      0.1150
        0.1250      0.1350      0.1450      0.1550      0.1650      0.1750
        0.1850      0.1950      0.2050      0.2150      0.2250      0.2350
        0.2450      0.2550      0.2650      0.2750      0.2850      0.2950
        0.3050      0.3150      0.3250      0.3350      0.3450      0.3550
        0.3650      0.3750      0.3850      0.3950      0.4050      0.4150
        0.4250      0.4350      0.4450      0.4550      0.4650      0.4750
        0.4850      0.4950      0.5050      0.5150      0.5250      0.5350
        0.5450      0.5550      0.5650      0.5750      0.5850      0.5950
        0.6050      0.6150      0.6250      0.6350      0.6450      0.6550
        0.6650      0.6750      0.6850      0.6950      0.7050      0.7150
        0.7250      0.7350      0.7450      0.7550      0.7650      0.7750
        0.7850      0.7950      0.8050      0.8150      0.8250      0.8350
        0.8450      0.8550      0.8650      0.8750      0.8850      0.8950
        0.9050      0.9150      0.9250      0.9350      0.9450      0.9550
        0.9650      0.9750      0.9850      0.9950
 
       84.1843     66.8891     60.3258     59.6696     59.9298     60.0046
       60.0016     59.9962     59.9933     59.9907     59.9880     59.9853
       59.9826     59.9799     59.9772     59.9745     59.9719     59.9692
       59.9665     59.9638     59.9611     59.9584     59.9557     59.9530
       59.9503     59.9477     59.9450     59.9423     59.9396     59.9369
       59.9342     59.9315     59.9288     59.9262     59.9235     59.9208
       59.9181     59.9154     59.9127     59.9100     59.9073     59.9046
       59.9019     59.8992     59.8965     59.8938     59.8911     59.8884
       59.8857     59.8830     59.8803     59.8775     59.8748     59.8721
       59.8694     59.8667     59.8639     59.8612     59.8585     59.8557
       59.8530     59.8502     59.8475     59.8447     59.8420     59.8392
       59.8365     59.8337     59.8309     59.8281     59.8253     59.8226
       59.8198     59.8170     59.8141     59.8113     59.8085     59.8057
       59.8028     59.8000     59.7971     59.7943     59.7914     59.7885
       59.7856     59.7827     59.7798     59.7769     59.7740     59.7710
       59.7680     59.7651     59.7621     59.7591     59.7561     59.7531
       59.7500     59.7466     59.7491     59.7087
 
 
 VARIABLES = "Y [ft/ft]"," T [F/F]"
 ZONE F=BLOCK, T="", I =          100
        0.0050      0.0150      0.0250      0.0350      0.0450      0.0550
        0.0650      0.0750      0.0850      0.0950      0.1050      0.1150
        0.1250      0.1350      0.1450      0.1550      0.1650      0.1750
        0.1850      0.1950      0.2050      0.2150      0.2250      0.2350
        0.2450      0.2550      0.2650      0.2750      0.2850      0.2950
        0.3050      0.3150      0.3250      0.3350      0.3450      0.3550
        0.3650      0.3750      0.3850      0.3950      0.4050      0.4150
        0.4250      0.4350      0.4450      0.4550      0.4650      0.4750
        0.4850      0.4950      0.5050      0.5150      0.5250      0.5350
        0.5450      0.5550      0.5650      0.5750      0.5850      0.5950
        0.6050      0.6150      0.6250      0.6350      0.6450      0.6550
        0.6650      0.6750      0.6850      0.6950      0.7050      0.7150
        0.7250      0.7350      0.7450      0.7550      0.7650      0.7750
        0.7850      0.7950      0.8050      0.8150      0.8250      0.8350
        0.8450      0.8550      0.8650      0.8750      0.8850      0.8950
        0.9050      0.9150      0.9250      0.9350      0.9450      0.9550
        0.9650      0.9750      0.9850      0.9950
 
       88.6268     70.3418     61.3076     59.5834     59.8234     59.9907
       60.0058     59.9979     59.9939     59.9912     59.9886     59.9859
       59.9832     59.9805     59.9778     59.9751     59.9724     59.9697
       59.9671     59.9644     59.9617     59.9590     59.9563     59.9536
       59.9509     59.9482     59.9456     59.9429     59.9402     59.9375
       59.9348     59.9321     59.9294     59.9267     59.9240     59.9214
       59.9187     59.9160     59.9133     59.9106     59.9079     59.9052
       59.9025     59.8998     59.8971     59.8944     59.8917     59.8890
       59.8863     59.8836     59.8808     59.8781     59.8754     59.8727
       59.8700     59.8672     59.8645     59.8618     59.8591     59.8563
       59.8536     59.8508     59.8481     59.8453     59.8426     59.8398
       59.8371     59.8343     59.8315     59.8287     59.8260     59.8232
       59.8204     59.8176     59.8148     59.8119     59.8091     59.8063
       59.8035     59.8006     59.7978     59.7949     59.7920     59.7891
       59.7863     59.7834     59.7804     59.7775     59.7746     59.7716
       59.7687     59.7657     59.7627     59.7597     59.7567     59.7537
       59.7507     59.7471     59.7499     59.7152
 
 
 VARIABLES = "Y [ft/ft]"," T [F/F]"
 ZONE F=BLOCK, T="", I =          100
        0.0050      0.0150      0.0250      0.0350      0.0450      0.0550
        0.0650      0.0750      0.0850      0.0950      0.1050      0.1150
        0.1250      0.1350      0.1450      0.1550      0.1650      0.1750
        0.1850      0.1950      0.2050      0.2150      0.2250      0.2350
        0.2450      0.2550      0.2650      0.2750      0.2850      0.2950
        0.3050      0.3150      0.3250      0.3350      0.3450      0.3550
        0.3650      0.3750      0.3850      0.3950      0.4050      0.4150
        0.4250      0.4350      0.4450      0.4550      0.4650      0.4750
        0.4850      0.4950      0.5050      0.5150      0.5250      0.5350
        0.5450      0.5550      0.5650      0.5750      0.5850      0.5950
        0.6050      0.6150      0.6250      0.6350      0.6450      0.6550
        0.6650      0.6750      0.6850      0.6950      0.7050      0.7150
        0.7250      0.7350      0.7450      0.7550      0.7650      0.7750
        0.7850      0.7950      0.8050      0.8150      0.8250      0.8350
        0.8450      0.8550      0.8650      0.8750      0.8850      0.8950
        0.9050      0.9150      0.9250      0.9350      0.9450      0.9550
        0.9650      0.9750      0.9850      0.9950
 
       92.2295     73.9803     62.8246     59.6743     59.6856     59.9501
       60.0078     60.0011     59.9947     59.9917     59.9891     59.9865
       59.9838     59.9811     59.9784     59.9757     59.9730     59.9703
       59.9676     59.9650     59.9623     59.9596     59.9569     59.9542
       59.9515     59.9488     59.9461     59.9435     59.9408     59.9381
       59.9354     59.9327     59.9300     59.9273     59.9246     59.9219
       59.9192     59.9166     59.9139     59.9112     59.9085     59.9058
       59.9031     59.9004     59.8977     59.8950     59.8923     59.8896
       59.8869     59.8841     59.8814     59.8787     59.8760     59.8733
       59.8706     59.8678     59.8651     59.8624     59.8597     59.8569
       59.8542     59.8514     59.8487     59.8459     59.8432     59.8404
       59.8377     59.8349     59.8321     59.8293     59.8266     59.8238
       59.8210     59.8182     59.8154     59.8126     59.8097     59.8069
       59.8041     59.8012     59.7984     59.7955     59.7926     59.7898
       59.7869     59.7840     59.7811     59.7782     59.7752     59.7723
       59.7693     59.7664     59.7634     59.7604     59.7574     59.7544
       59.7514     59.7477     59.7504     59.7207
 
 
 VARIABLES = "Y [ft/ft]"," T [F/F]"
 ZONE F=BLOCK, T="", I =          100
        0.0050      0.0150      0.0250      0.0350      0.0450      0.0550
        0.0650      0.0750      0.0850      0.0950      0.1050      0.1150
        0.1250      0.1350      0.1450      0.1550      0.1650      0.1750
        0.1850      0.1950      0.2050      0.2150      0.2250      0.2350
        0.2450      0.2550      0.2650      0.2750      0.2850      0.2950
        0.3050      0.3150      0.3250      0.3350      0.3450      0.3550
        0.3650      0.3750      0.3850      0.3950      0.4050      0.4150
        0.4250      0.4350      0.4450      0.4550      0.4650      0.4750
        0.4850      0.4950      0.5050      0.5150      0.5250      0.5350
        0.5450      0.5550      0.5650      0.5750      0.5850      0.5950
        0.6050      0.6150      0.6250      0.6350      0.6450      0.6550
        0.6650      0.6750      0.6850      0.6950      0.7050      0.7150
        0.7250      0.7350      0.7450      0.7550      0.7650      0.7750
        0.7850      0.7950      0.8050      0.8150      0.8250      0.8350
        0.8450      0.8550      0.8650      0.8750      0.8850      0.8950
        0.9050      0.9150      0.9250      0.9350      0.9450      0.9550
        0.9650      0.9750      0.9850      0.9950
 
       95.0915     77.6290     64.8355     60.0342     59.5558     59.8754
       60.0013     60.0056     59.9964     59.9923     59.9897     59.9870
       59.9844     59.9817     59.9790     59.9763     59.9736     59.9709
       59.9682     59.9655     59.9629     59.9602     59.9575     59.9548
       59.9521     59.9494     59.9467     59.9440     59.9414     59.9387
       59.9360     59.9333     59.9306     59.9279     59.9252     59.9225
       59.9198     59.9171     59.9144     59.9118     59.9091     59.9064
       59.9037     59.9010     59.8983     59.8956     59.8929     59.8902
       59.8874     59.8847     59.8820     59.8793     59.8766     59.8739
       59.8712     59.8684     59.8657     59.8630     59.8602     59.8575
       59.8548     59.8520     59.8493     59.8465     59.8438     59.8410
       59.8383     59.8355     59.8327     59.8300     59.8272     59.8244
       59.8216     59.8188     59.8160     59.8132     59.8103     59.8075
       59.8047     59.8018     59.7990     59.7961     59.7933     59.7904
       59.7875     59.7846     59.7817     59.7788     59.7759     59.7729
       59.7700     59.7670     59.7640     59.7611     59.7581     59.7550
       59.7521     59.7483     59.7508     59.7254
 
 
 VARIABLES = "Y [ft/ft]"," T [F/F]"
 ZONE F=BLOCK, T="", I =          100
        0.0050      0.0150      0.0250      0.0350      0.0450      0.0550
        0.0650      0.0750      0.0850      0.0950      0.1050      0.1150
        0.1250      0.1350      0.1450      0.1550      0.1650      0.1750
        0.1850      0.1950      0.2050      0.2150      0.2250      0.2350
        0.2450      0.2550      0.2650      0.2750      0.2850      0.2950
        0.3050      0.3150      0.3250      0.3350      0.3450      0.3550
        0.3650      0.3750      0.3850      0.3950      0.4050      0.4150
        0.4250      0.4350      0.4450      0.4550      0.4650      0.4750
        0.4850      0.4950      0.5050      0.5150      0.5250      0.5350
        0.5450      0.5550      0.5650      0.5750      0.5850      0.5950
        0.6050      0.6150      0.6250      0.6350      0.6450      0.6550
        0.6650      0.6750      0.6850      0.6950      0.7050      0.7150
        0.7250      0.7350      0.7450      0.7550      0.7650      0.7750
        0.7850      0.7950      0.8050      0.8150      0.8250      0.8350
        0.8450      0.8550      0.8650      0.8750      0.8850      0.8950
        0.9050      0.9150      0.9250      0.9350      0.9450      0.9550
        0.9650      0.9750      0.9850      0.9950
 
       97.3119     81.1532     67.2617     60.7301     59.4885     59.7689
       59.9783     60.0094     59.9993     59.9931     59.9902     59.9876
       59.9849     59.9823     59.9796     59.9769     59.9742     59.9715
       59.9688     59.9661     59.9634     59.9607     59.9581     59.9554
       59.9527     59.9500     59.9473     59.9446     59.9419     59.9392
       59.9366     59.9339     59.9312     59.9285     59.9258     59.9231
       59.9204     59.9177     59.9150     59.9123     59.9096     59.9069
       59.9042     59.9015     59.8988     59.8961     59.8934     59.8907
       59.8880     59.8853     59.8826     59.8799     59.8772     59.8745
       59.8717     59.8690     59.8663     59.8636     59.8608     59.8581
       59.8554     59.8526     59.8499     59.8471     59.8444     59.8416
       59.8389     59.8361     59.8333     59.8306     59.8278     59.8250
       59.8222     59.8194     59.8166     59.8138     59.8110     59.8081
       59.8053     59.8025     59.7996     59.7968     59.7939     59.7910
       59.7881     59.7852     59.7823     59.7794     59.7765     59.7736
       59.7706     59.7677     59.7647     59.7617     59.7587     59.7557
       59.7527     59.7489     59.7511     59.7294
 
 
 VARIABLES = "Y [ft/ft]"," T [F/F]"
 ZONE F=BLOCK, T="", I =          100
        0.0050      0.0150      0.0250      0.0350      0.0450      0.0550
        0.0650      0.0750      0.0850      0.0950      0.1050      0.1150
        0.1250      0.1350      0.1450      0.1550      0.1650      0.1750
        0.1850      0.1950      0.2050      0.2150      0.2250      0.2350
        0.2450      0.2550      0.2650      0.2750      0.2850      0.2950
        0.3050      0.3150      0.3250      0.3350      0.3450      0.3550
        0.3650      0.3750      0.3850      0.3950      0.4050      0.4150
        0.4250      0.4350      0.4450      0.4550      0.4650      0.4750
        0.4850      0.4950      0.5050      0.5150      0.5250      0.5350
        0.5450      0.5550      0.5650      0.5750      0.5850      0.5950
        0.6050      0.6150      0.6250      0.6350      0.6450      0.6550
        0.6650      0.6750      0.6850      0.6950      0.7050      0.7150
        0.7250      0.7350      0.7450      0.7550      0.7650      0.7750
        0.7850      0.7950      0.8050      0.8150      0.8250      0.8350
        0.8450      0.8550      0.8650      0.8750      0.8850      0.8950
        0.9050      0.9150      0.9250      0.9350      0.9450      0.9550
        0.9650      0.9750      0.9850      0.9950
 
       98.9824     84.4532     70.0051     61.8012     59.5464     59.6447
       59.9317     60.0089     60.0036     59.9945     59.9907     59.9881
       59.9855     59.9828     59.9801     59.9775     59.9748     59.9721
       59.9694     59.9667     59.9640     59.9613     59.9586     59.9560
       59.9533     59.9506     59.9479     59.9452     59.9425     59.9398
       59.9371     59.9345     59.9318     59.9291     59.9264     59.9237
       59.9210     59.9183     59.9156     59.9129     59.9102     59.9075
       59.9048     59.9021     59.8994     59.8967     59.8940     59.8913
       59.8886     59.8859     59.8832     59.8805     59.8778     59.8751
       59.8723     59.8696     59.8669     59.8642     59.8614     59.8587
       59.8560     59.8532     59.8505     59.8477     59.8450     59.8422
       59.8395     59.8367     59.8339     59.8312     59.8284     59.8256
       59.8228     59.8200     59.8172     59.8144     59.8116     59.8088
       59.8059     59.8031     59.8002     59.7974     59.7945     59.7916
       59.7888     59.7859     59.7830     59.7801     59.7771     59.7742
       59.7713     59.7683     59.7653     59.7624     59.7594     59.7563
       59.7534     59.7495     59.7513     59.7327
 
 
 VARIABLES = "Y [ft/ft]"," T [F/F]"
 ZONE F=BLOCK, T="", I =          100
        0.0050      0.0150      0.0250      0.0350      0.0450      0.0550
        0.0650      0.0750      0.0850      0.0950      0.1050      0.1150
        0.1250      0.1350      0.1450      0.1550      0.1650      0.1750
        0.1850      0.1950      0.2050      0.2150      0.2250      0.2350
        0.2450      0.2550      0.2650      0.2750      0.2850      0.2950
        0.3050      0.3150      0.3250      0.3350      0.3450      0.3550
        0.3650      0.3750      0.3850      0.3950      0.4050      0.4150
        0.4250      0.4350      0.4450      0.4550      0.4650      0.4750
        0.4850      0.4950      0.5050      0.5150      0.5250      0.5350
        0.5450      0.5550      0.5650      0.5750      0.5850      0.5950
        0.6050      0.6150      0.6250      0.6350      0.6450      0.6550
        0.6650      0.6750      0.6850      0.6950      0.7050      0.7150
        0.7250      0.7350      0.7450      0.7550      0.7650      0.7750
        0.7850      0.7950      0.8050      0.8150      0.8250      0.8350
        0.8450      0.8550      0.8650      0.8750      0.8850      0.8950
        0.9050      0.9150      0.9250      0.9350      0.9450      0.9550
        0.9650      0.9750      0.9850      0.9950
 
      100.1929     87.4612     72.9565     63.2552     59.7916     59.5294
       59.8581     59.9988     60.0082     59.9969     59.9913     59.9886
       59.9861     59.9834     59.9807     59.9780     59.9754     59.9727
       59.9700     59.9673     59.9646     59.9619     59.9592     59.9565
       59.9539     59.9512     59.9485     59.9458     59.9431     59.9404
       59.9377     59.9350     59.9323     59.9297     59.9270     59.9243
       59.9216     59.9189     59.9162     59.9135     59.9108     59.9081
       59.9054     59.9027     59.9000     59.8973     59.8946     59.8919
       59.8892     59.8865     59.8838     59.8811     59.8784     59.8756
       59.8729     59.8702     59.8675     59.8648     59.8620     59.8593
       59.8566     59.8538     59.8511     59.8483     59.8456     59.8428
       59.8401     59.8373     59.8345     59.8318     59.8290     59.8262
       59.8234     59.8206     59.8178     59.8150     59.8122     59.8094
       59.8065     59.8037     59.8009     59.7980     59.7951     59.7923
       59.7894     59.7865     59.7836     59.7807     59.7778     59.7748
       59.7719     59.7690     59.7660     59.7630     59.7600     59.7570
       59.7541     59.7502     59.7515     59.7355
 
 
 VARIABLES = "Y [ft/ft]"," T [F/F]"
 ZONE F=BLOCK, T="", I =          100
        0.0050      0.0150      0.0250      0.0350      0.0450      0.0550
        0.0650      0.0750      0.0850      0.0950      0.1050      0.1150
        0.1250      0.1350      0.1450      0.1550      0.1650      0.1750
        0.1850      0.1950      0.2050      0.2150      0.2250      0.2350
        0.2450      0.2550      0.2650      0.2750      0.2850      0.2950
        0.3050      0.3150      0.3250      0.3350      0.3450      0.3550
        0.3650      0.3750      0.3850      0.3950      0.4050      0.4150
        0.4250      0.4350      0.4450      0.4550      0.4650      0.4750
        0.4850      0.4950      0.5050      0.5150      0.5250      0.5350
        0.5450      0.5550      0.5650      0.5750      0.5850      0.5950
        0.6050      0.6150      0.6250      0.6350      0.6450      0.6550
        0.6650      0.6750      0.6850      0.6950      0.7050      0.7150
        0.7250      0.7350      0.7450      0.7550      0.7650      0.7750
        0.7850      0.7950      0.8050      0.8150      0.8250      0.8350
        0.8450      0.8550      0.8650      0.8750      0.8850      0.8950
        0.9050      0.9150      0.9250      0.9350      0.9450      0.9550
        0.9650      0.9750      0.9850      0.9950
 
      101.0268     90.1373     76.0074     65.0711     60.2775     59.4600
       59.7605     59.9733     60.0111     60.0005     59.9924     59.9891
       59.9866     59.9840     59.9813     59.9786     59.9759     59.9732