 TITLE = "1D TEMP PLOT"
 VARIABLES = "Y [ft/ft]"," T [F/F]"
 ZONE F=BLOCK, T="", I =          100
        0.0050      0.0150      0.0250      0.0350      0.0450      0.0550
        0.0650      0.0750      0.0850      0.0950      0.1050      0.1150
        0.1250      0.1350      0.1450      0.1550      0.1650      0.1750
        0.1850      0.1950      0.2050      0.2150      0.2250      0.2350
        0.2450      0.2550      0.2650      0.2750      0.2850      0.2950
        0.3050      0.3150      0.3250      0.3350      0.3450      0.3550
        0.3650      0.3750      0.3850      0.3950      0.4050      0.4150
        0.4250      0.4350      0.4450      0.4550      0.4650      0.4750
        0.4850      0.4950      0.5050      0.5150      0.5250      0.5350
        0.5450      0.5550      0.5650      0.5750      0.5850      0.5950
        0.6050      0.6150      0.6250      0.6350      0.6450      0.6550
        0.6650      0.6750      0.6850      0.6950      0.7050      0.7150
        0.7250      0.7350      0.7450      0.7550      0.7650      0.7750
        0.7850      0.7950      0.8050      0.8150      0.8250      0.8350
        0.8450      0.8550      0.8650      0.8750      0.8850      0.8950
        0.9050      0.9150      0.9250      0.9350      0.9450      0.9550
        0.9650      0.9750      0.9850      0.9950
 
       60.0000     60.0000     60.0000     60.0000     60.0000     60.0000
       60.0000     60.0000     60.0000     60.0000     60.0000     60.0000
       60.0000     60.0000     60.0000     60.0000     60.0000     60.0000
       60.0000     60.0000     60.0000     60.0000     60.0000     60.0000
       60.0000     60.0000     60.0000     60.0000     60.0000     60.0000
       60.0000     60.0000     60.0000     60.0000     60.0000     60.0000
       60.0000     60.0000     60.0000     60.0000     60.0000     60.0000
       60.0000     60.0000     60.0000     60.0000     60.0000     60.0000
       60.0000     60.0000     60.0000     60.0000     60.0000     60.0000
       60.0000     60.0000     60.0000     60.0000     60.0000     60.0000
       60.0000     60.0000     60.0000     60.0000     60.0000     60.0000
       60.0000     60.0000     60.0000     60.0000     60.0000     60.0000
       60.0000     60.0000     60.0000     60.0000     60.0000     60.0000
       60.0000     60.0000     60.0000     60.0000     60.0000     60.0000
       60.0000     60.0000     60.0000     60.0000     60.0000     60.0000
       60.0000     60.0000     60.0000     60.0000     60.0000     60.0000
       60.0000     60.0000     60.0000     60.0000
 
 
 VARIABLES = "Y [ft/ft]"," T [F/F]"
 ZONE F=BLOCK, T="", I =          100
        0.0050      0.0150      0.0250      0.0350      0.0450      0.0550
        0.0650      0.0750      0.0850      0.0950      0.1050      0.1150
        0.1250      0.1350      0.1450      0.1550      0.1650      0.1750
        0.1850      0.1950      0.2050      0.2150      0.2250      0.2350
        0.2450      0.2550      0.2650      0.2750      0.2850      0.2950
        0.3050      0.3150      0.3250      0.3350      0.3450      0.3550
        0.3650      0.3750      0.3850      0.3950      0.4050      0.4150
        0.4250      0.4350      0.4450      0.4550      0.4650      0.4750
        0.4850      0.4950      0.5050      0.5150      0.5250      0.5350
        0.5450      0.5550      0.5650      0.5750      0.5850      0.5950
        0.6050      0.6150      0.6250      0.6350      0.6450      0.6550
        0.6650      0.6750      0.6850      0.6950      0.7050      0.7150
        0.7250      0.7350      0.7450      0.7550      0.7650      0.7750
        0.7850      0.7950      0.8050      0.8150      0.8250      0.8350
        0.8450      0.8550      0.8650      0.8750      0.8850      0.8950
        0.9050      0.9150      0.9250      0.9350      0.9450      0.9550
        0.9650      0.9750      0.9850      0.9950
 
       64.2199     60.8375     60.1265     60.0162     60.0041     60.0013
       59.9989     59.9966     59.9942     59.9918     59.9894     59.9870
       59.9846     59.9823     59.9799     59.9775     59.9751     59.9727
       59.9703     59.9678     59.9654     59.9630     59.9606     59.9581
       59.9557     59.9533     59.9508     59.9483     59.9459     59.9434
       59.9409     59.9384     59.9359     59.9334     59.9309     59.9283
       59.9258     59.9232     59.9207     59.9181     59.9155     59.9129
       59.9103     59.9077     59.9051     59.9025     59.8998     59.8972
       59.8945     59.8918     59.8891     59.8864     59.8837     59.8809
       59.8782     59.8754     59.8726     59.8699     59.8671     59.8642
       59.8614     59.8585     59.8557     59.8528     59.8499     59.8470
       59.8441     59.8411     59.8382     59.8352     59.8322     59.8292
       59.8262     59.8232     59.8202     59.8171     59.8140     59.8109
       59.8078     59.8047     59.8015     59.7984     59.7952     59.7920
       59.7888     59.7856     59.7824     59.7791     59.7758     59.7725
       59.7692     59.7659     59.7626     59.7592     59.7558     59.7524
       59.7488     59.7437     59.7317     59.6970
 
 
 VARIABLES = "Y [ft/ft]"," T [F/F]"
 ZONE F=BLOCK, T="", I =          100
        0.0050      0.0150      0.0250      0.0350      0.0450      0.0550
        0.0650      0.0750      0.0850      0.0950      0.1050      0.1150
        0.1250      0.1350      0.1450      0.1550      0.1650      0.1750
        0.1850      0.1950      0.2050      0.2150      0.2250      0.2350
        0.2450      0.2550      0.2650      0.2750      0.2850      0.2950
        0.3050      0.3150      0.3250      0.3350      0.3450      0.3550
        0.3650      0.3750      0.3850      0.3950      0.4050      0.4150
        0.4250      0.4350      0.4450      0.4550      0.4650      0.4750
        0.4850      0.4950      0.5050      0.5150      0.5250      0.5350
        0.5450      0.5550      0.5650      0.5750      0.5850      0.5950
        0.6050      0.6150      0.6250      0.6350      0.6450      0.6550
        0.6650      0.6750      0.6850      0.6950      0.7050      0.7150
        0.7250      0.7350      0.7450      0.7550      0.7650      0.7750
        0.7850      0.7950      0.8050      0.8150      0.8250      0.8350
        0.8450      0.8550      0.8650      0.8750      0.8850      0.8950
        0.9050      0.9150      0.9250      0.9350      0.9450      0.9550
        0.9650      0.9750      0.9850      0.9950
 
       69.3751     63.2590     60.8385     60.1625     60.0246     60.0023
       59.9977     59.9949     59.9923     59.9896     59.9869     59.9842
       59.9816     59.9789     59.9762     59.9735     59.9709     59.9682
       59.9655     59.9628     59.9601     59.9575     59.9548     59.9521
       59.9494     59.9467     59.9441     59.9414     59.9387     59.9360
       59.9333     59.9306     59.9280     59.9253     59.9226     59.9199
       59.9172     59.9145     59.9118     59.9091     59.9065     59.9038
       59.9011     59.8984     59.8957     59.8930     59.8902     59.8875
       59.8848     59.8821     59.8794     59.8767     59.8740     59.8713
       59.8685     59.8658     59.8631     59.8603     59.8576     59.8549
       59.8521     59.8494     59.8466     59.8439     59.8411     59.8383
       59.8355     59.8328     59.8300     59.8272     59.8244     59.8216
       59.8188     59.8160     59.8131     59.8103     59.8075     59.8046
       59.8018     59.7989     59.7961     59.7932     59.7903     59.7874
       59.7845     59.7816     59.7786     59.7757     59.7728     59.7698
       59.7668     59.7638     59.7608     59.7578     59.7548     59.7516
       59.7478     59.7417     59.7298     59.7115
 
 
 VARIABLES = "Y [ft/ft]"," T [F/F]"
 ZONE F=BLOCK, T="", I =          100
        0.0050      0.0150      0.0250      0.0350      0.0450      0.0550
        0.0650      0.0750      0.0850      0.0950      0.1050      0.1150
        0.1250      0.1350      0.1450      0.1550      0.1650      0.1750
        0.1850      0.1950      0.2050      0.2150      0.2250      0.2350
        0.2450      0.2550      0.2650      0.2750      0.2850      0.2950
        0.3050      0.3150      0.3250      0.3350      0.3450      0.3550
        0.3650      0.3750      0.3850      0.3950      0.4050      0.4150
        0.4250      0.4350      0.4450      0.4550      0.4650      0.4750
        0.4850      0.4950      0.5050      0.5150      0.5250      0.5350
        0.5450      0.5550      0.5650      0.5750      0.5850      0.5950
        0.6050      0.6150      0.6250      0.6350      0.6450      0.6550
        0.6650      0.6750      0.6850      0.6950      0.7050      0.7150
        0.7250      0.7350      0.7450      0.7550      0.7650      0.7750
        0.7850      0.7950      0.8050      0.8150      0.8250      0.8350
        0.8450      0.8550      0.8650      0.8750      0.8850      0.8950
        0.9050      0.9150      0.9250      0.9350      0.9450      0.9550
        0.9650      0.9750      0.9850      0.9950
 
       73.1727     66.0938     62.2283     60.6491     60.1524     60.0281
       60.0019     59.9958     59.9928     59.9901     59.9874     59.9847
       59.9820     59.9793     59.9766     59.9740     59.9713     59.9686
       59.9659     59.9632     59.9605     59.9578     59.9551     59.9524
       59.9498     59.9471     59.9444     59.9417     59.9390     59.9363
       59.9336     59.9309     59.9282     59.9256     59.9229     59.9202
       59.9175     59.9148     59.9121     59.9094     59.9067     59.9040
       59.9013     59.8986     59.8959     59.8932     59.8905     59.8878
       59.8851     59.8823     59.8796     59.8769     59.8742     59.8715
       59.8688     59.8660     59.8633     59.8606     59.8579     59.8551
       59.8524     59.8496     59.8469     59.8441     59.8414     59.8386
       59.8358     59.8331     59.8303     59.8275     59.8247     59.8219
       59.8191     59.8163     59.8135     59.8107     59.8079     59.8050
       59.8022     59.7993     59.7965     59.7936     59.7907     59.7878
       59.7849     59.7820     59.7791     59.7762     59.7733     59.7703
       59.7674     59.7644     59.7614     59.7584     59.7553     59.7519
       59.7477     59.7413     59.7312     59.7196
 
 
 VARIABLES = "Y [ft/ft]"," T [F/F]"
 ZONE F=BLOCK, T="", I =          100
        0.0050      0.0150      0.0250      0.0350      0.0450      0.0550
        0.0650      0.0750      0.0850      0.0950      0.1050      0.1150
        0.1250      0.1350      0.1450      0.1550      0.1650      0.1750
        0.1850      0.1950      0.2050      0.2150      0.2250      0.2350
        0.2450      0.2550      0.2650      0.2750      0.2850      0.2950
        0.3050      0.3150      0.3250      0.3350      0.3450      0.3550
        0.3650      0.3750      0.3850      0.3950      0.4050      0.4150
        0.4250      0.4350      0.4450      0.4550      0.4650      0.4750
        0.4850      0.4950      0.5050      0.5150      0.5250      0.5350
        0.5450      0.5550      0.5650      0.5750      0.5850      0.5950
        0.6050      0.6150      0.6250      0.6350      0.6450      0.6550
        0.6650      0.6750      0.6850      0.6950      0.7050      0.7150
        0.7250      0.7350      0.7450      0.7550      0.7650      0.7750
        0.7850      0.7950      0.8050      0.8150      0.8250      0.8350
        0.8450      0.8550      0.8650      0.8750      0.8850      0.8950
        0.9050      0.9150      0.9250      0.9350      0.9450      0.9550
        0.9650      0.9750      0.9850      0.9950
 
       76.0717     68.7886     63.9956     61.5107     60.4775     60.1258
       60.0258     60.0008     59.9940     59.9907     59.9880     59.9853
       59.9826     59.9799     59.9772     59.9745     59.9718     59.9691
       59.9664     59.9638     59.9611     59.9584     59.9557     59.9530
       59.9503     59.9477     59.9450     59.9423     59.9396     59.9369
       59.9342     59.9315     59.9288     59.9261     59.9234     59.9207
       59.9181     59.9154     59.9127     59.9100     59.9073     59.9046
       59.9019     59.8992     59.8965     59.8938     59.8911     59.8883
       59.8856     59.8829     59.8802     59.8775     59.8748     59.8721
       59.8694     59.8666     59.8639     59.8612     59.8584     59.8557
       59.8530     59.8502     59.8475     59.8447     59.8420     59.8392
       59.8364     59.8337     59.8309     59.8281     59.8253     59.8225
       59.8197     59.8169     59.8141     59.8113     59.8085     59.8056
       59.8028     59.7999     59.7971     59.7942     59.7913     59.7885
       59.7856     59.7827     59.7797     59.7768     59.7739     59.7710
       59.7680     59.7650     59.7620     59.7590     59.7558     59.7523
       59.7479     59.7416     59.7332     59.7249
 
 
 VARIABLES = "Y [ft/ft]"," T [F/F]"
 ZONE F=BLOCK, T="", I =          100
        0.0050      0.0150      0.0250      0.0350      0.0450      0.0550
        0.0650      0.0750      0.0850      0.0950      0.1050      0.1150
        0.1250      0.1350      0.1450      0.1550      0.1650      0.1750
        0.1850      0.1950      0.2050      0.2150      0.2250      0.2350
        0.2450      0.2550      0.2650      0.2750      0.2850      0.2950
        0.3050      0.3150      0.3250      0.3350      0.3450      0.3550
        0.3650      0.3750      0.3850      0.3950      0.4050      0.4150
        0.4250      0.4350      0.4450      0.4550      0.4650      0.4750
        0.4850      0.4950      0.5050      0.5150      0.5250      0.5350
        0.5450      0.5550      0.5650      0.5750      0.5850      0.5950
        0.6050      0.6150      0.6250      0.6350      0.6450      0.6550
        0.6650      0.6750      0.6850      0.6950      0.7050      0.7150
        0.7250      0.7350      0.7450      0.7550      0.7650      0.7750
        0.7850      0.7950      0.8050      0.8150      0.8250      0.8350
        0.8450      0.8550      0.8650      0.8750      0.8850      0.8950
        0.9050      0.9150      0.9250      0.9350      0.9450      0.9550
        0.9650      0.9750      0.9850      0.9950
 
       78.3941     71.2194     65.8978     62.6614     61.0324     60.3441
       60.0971     60.0205     59.9989     59.9921     59.9887     59.9859
       59.9832     59.9805     59.9778     59.9751     59.9724     59.9697
       59.9670     59.9644     59.9617     59.9590     59.9563     59.9536
       59.9509     59.9483     59.9456     59.9429     59.9402     59.9375
       59.9348     59.9321     59.9294     59.9267     59.9240     59.9213
       59.9186     59.9159     59.9133     59.9106     59.9079     59.9052
       59.9025     59.8998     59.8971     59.8944     59.8917     59.8889
       59.8862     59.8835     59.8808     59.8781     59.8754     59.8727
       59.8700     59.8672     59.8645     59.8618     59.8590     59.8563
       59.8536     59.8508     59.8481     59.8453     59.8426     59.8398
       59.8370     59.8343     59.8315     59.8287     59.8259     59.8231
       59.8203     59.8175     59.8147     59.8119     59.8091     59.8063
       59.8034     59.8006     59.7977     59.7949     59.7920     59.7891
       59.7862     59.7833     59.7804     59.7775     59.7745     59.7716
       59.7686     59.7657     59.7627     59.7596     59.7564     59.7528
       59.7482     59.7423     59.7352     59.7288
 
 
 VARIABLES = "Y [ft/ft]"," T [F/F]"
 ZONE F=BLOCK, T="", I =          100
        0.0050      0.0150      0.0250      0.0350      0.0450      0.0550
        0.0650      0.0750      0.0850      0.0950      0.1050      0.1150
        0.1250      0.1350      0.1450      0.1550      0.1650      0.1750
        0.1850      0.1950      0.2050      0.2150      0.2250      0.2350
        0.2450      0.2550      0.2650      0.2750      0.2850      0.2950
        0.3050      0.3150      0.3250      0.3350      0.3450      0.3550
        0.3650      0.3750      0.3850      0.3950      0.4050      0.4150
        0.4250      0.4350      0.4450      0.4550      0.4650      0.4750
        0.4850      0.4950      0.5050      0.5150      0.5250      0.5350
        0.5450      0.5550      0.5650      0.5750      0.5850      0.5950
        0.6050      0.6150      0.6250      0.6350      0.6450      0.6550
        0.6650      0.6750      0.6850      0.6950      0.7050      0.7150
        0.7250      0.7350      0.7450      0.7550      0.7650      0.7750
        0.7850      0.7950      0.8050      0.8150      0.8250      0.8350
        0.8450      0.8550      0.8650      0.8750      0.8850      0.8950
        0.9050      0.9150      0.9250      0.9350      0.9450      0.9550
        0.9650      0.9750      0.9850      0.9950
 
       80.3228     73.3856     67.7984     63.9938     61.7965     60.7093
       60.2447     60.0716     60.0143     59.9964     59.9901     59.9866
       59.9838     59.9811     59.9784     59.9757     59.9730     59.9703
       59.9676     59.9650     59.9623     59.9596     59.9569     59.9542
       59.9515     59.9488     59.9462     59.9434     59.9407     59.9381
       59.9354     59.9327     59.9300     59.9273     59.9246     59.9219
       59.9192     59.9165     59.9138     59.9112     59.9085     59.9058
       59.9031     59.9004     59.8977     59.8950     59.8923     59.8895
       59.8868     59.8841     59.8814     59.8787     59.8760     59.8733
       59.8706     59.8678     59.8651     59.8624     59.8596     59.8569
       59.8541     59.8514     59.8487     59.8459     59.8432     59.8404
       59.8376     59.8349     59.8321     59.8293     59.8265     59.8237
       59.8209     59.8182     59.8153     59.8125     59.8097     59.8069
       59.8041     59.8012     59.7983     59.7955     59.7926     59.7897
       59.7869     59.7840     59.7810     59.7781     59.7752     59.7722
       59.7693     59.7663     59.7633     59.7602     59.7569     59.7532
       59.7488     59.7432     59.7370     59.7317
 
 
 VARIABLES = "Y [ft/ft]"," T [F/F]"
 ZONE F=BLOCK, T="", I =          100
        0.0050      0.0150      0.0250      0.0350      0.0450      0.0550
        0.0650      0.0750      0.0850      0.0950      0.1050      0.1150
        0.1250      0.1350      0.1450      0.1550      0.1650      0.1750
        0.1850      0.1950      0.2050      0.2150      0.2250      0.2350
        0.2450      0.2550      0.2650      0.2750      0.2850      0.2950
        0.3050      0.3150      0.3250      0.3350      0.3450      0.3550
        0.3650      0.3750      0.3850      0.3950      0.4050      0.4150
        0.4250      0.4350      0.4450      0.4550      0.4650      0.4750
        0.4850      0.4950      0.5050      0.5150      0.5250      0.5350
        0.5450      0.5550      0.5650      0.5750      0.5850      0.5950
        0.6050      0.6150      0.6250      0.6350      0.6450      0.6550
        0.6650      0.6750      0.6850      0.6950      0.7050      0.7150
        0.7250      0.7350      0.7450      0.7550      0.7650      0.7750
        0.7850      0.7950      0.8050      0.8150      0.8250      0.8350
        0.8450      0.8550      0.8650      0.8750      0.8850      0.8950
        0.9050      0.9150      0.9250      0.9350      0.9450      0.9550
        0.9650      0.9750      0.9850      0.9950
 
       81.9619     75.3171     69.6323     65.4229     62.7277     61.2241
       60.4890     60.1721     60.0506     60.0081     59.9937     59.9880
       59.9846     59.9817     59.9789     59.9762     59.9735     59.9708
       59.9682     59.9655     59.9629     59.9602     59.9575     59.9548
       59.9521     59.9494     59.9467     59.9440     59.9413     59.9386
       59.9360     59.9333     59.9306     59.9279     59.9252     59.9225
       59.9198     59.9171     59.9144     59.9117     59.9090     59.9064
       59.9037     59.9009     59.8982     59.8956     59.8929     59.8901
       59.8874     59.8847     59.8820     59.8793     59.8766     59.8739
       59.8712     59.8684     59.8657     59.8630     59.8602     59.8575
       59.8547     59.8520     59.8493     59.8465     59.8437     59.8410
       59.8382     59.8354     59.8327     59.8299     59.8271     59.8243
       59.8215     59.8188     59.8159     59.8131     59.8103     59.8075
       59.8047     59.8018     59.7990     59.7961     59.7932     59.7904
       59.7875     59.7846     59.7816     59.7787     59.7758     59.7728
       59.7699     59.7669     59.7639     59.7608     59.7575     59.7538
       59.7494     59.7442     59.7387     59.7342
 
 
 VARIABLES = "Y [ft/ft]"," T [F/F]"
 ZONE F=BLOCK, T="", I =          100
        0.0050      0.0150      0.0250      0.0350      0.0450      0.0550
        0.0650      0.0750      0.0850      0.0950      0.1050      0.1150
        0.1250      0.1350      0.1450      0.1550      0.1650      0.1750
        0.1850      0.1950      0.2050      0.2150      0.2250      0.2350
        0.2450      0.2550      0.2650      0.2750      0.2850      0.2950
        0.3050      0.3150      0.3250      0.3350      0.3450      0.3550
        0.3650      0.3750      0.3850      0.3950      0.4050      0.4150
        0.4250      0.4350      0.4450      0.4550      0.4650      0.4750
        0.4850      0.4950      0.5050      0.5150      0.5250      0.5350
        0.5450      0.5550      0.5650      0.5750      0.5850      0.5950
        0.6050      0.6150      0.6250      0.6350      0.6450      0.6550
        0.6650      0.6750      0.6850      0.6950      0.7050      0.7150
        0.7250      0.7350      0.7450      0.7550      0.7650      0.7750
        0.7850      0.7950      0.8050      0.8150      0.8250      0.8350
        0.8450      0.8550      0.8650      0.8750      0.8850      0.8950
        0.9050      0.9150      0.9250      0.9350      0.9450      0.9550
        0.9650      0.9750      0.9850      0.9950
 
       83.3790     77.0461     71.3709     66.8891     63.7802     61.8751
       60.8394     60.3375     60.1196     60.0339     60.0025     59.9909
       59.9858     59.9824     59.9795     59.9768     59.9741     59.9714
       59.9687     59.9661     59.9635     59.9608     59.9581     59.9554
       59.9527     59.9500     59.9473     59.9446     59.9419     59.9392
       59.9365     59.9339     59.9312     59.9285     59.9258     59.9231
       59.9204     59.9177     59.9150     59.9123     59.9096     59.9069
       59.9043     59.9015     59.8988     59.8961     59.8934     59.8907
       59.8880     59.8853     59.8826     59.8799     59.8772     59.8745
       59.8718     59.8690     59.8663     59.8636     59.8608     59.8581
       59.8553     59.8526     59.8499     59.8471     59.8443     59.8416
       59.8388     59.8360     59.8333     59.8305     59.8277     59.8249
       59.8222     59.8194     59.8166     59.8137     59.8109     59.8081
       59.8053     59.8024     59.7996     59.7967     59.7939     59.7910
       59.7881     59.7852     59.7823     59.7793     59.7764     59.7735
       59.7705     59.7676     59.7645     59.7614     59.7581     59.7543
       59.7501     59.7452     59.7402     59.7363
 
 
 VARIABLES = "Y [ft/ft]"," T [F/F]"
 ZONE F=BLOCK, T="", I =          100
        0.0050      0.0150      0.0250      0.0350      0.0450      0.0550
        0.0650      0.0750      0.0850      0.0950      0.1050      0.1150
        0.1250      0.1350      0.1450      0.1550      0.1650      0.1750
        0.1850      0.1950      0.2050      0.2150      0.2250      0.2350
        0.2450      0.2550      0.2650      0.2750      0.2850      0.2950
        0.3050      0.3150      0.3250      0.3350      0.3450      0.3550
        0.3650      0.3750      0.3850      0.3950      0.4050      0.4150
        0.4250      0.4350      0.4450      0.4550      0.4650      0.4750
        0.4850      0.4950      0.5050      0.5150      0.5250      0.5350
        0.5450      0.5550      0.5650      0.5750      0.5850      0.5950
        0.6050      0.6150      0.6250      0.6350      0.6450      0.6550
        0.6650      0.6750      0.6850      0.6950      0.7050      0.7150
        0.7250      0.7350      0.7450      0.7550      0.7650      0.7750
        0.7850      0.7950      0.8050      0.8150      0.8250      0.8350
        0.8450      0.8550      0.8650      0.8750      0.8850      0.8950
        0.9050      0.9150      0.9250      0.9350      0.9450      0.9550
        0.9650      0.9750      0.9850      0.9950
 
       84.6170     78.6001     73.0044     68.3540     64.9149     62.6422
       61.2958     60.5782     60.2328     60.0817     60.0208     59.9975
       59.9882     59.9835     59.9802     59.9774     59.9747     59.9720
       59.9693     59.9667     59.9641     59.9614     59.9587     59.9560
       59.9533     59.9506     59.9479     59.9452     59.9425     59.9398
       59.9371     59.9345     59.9318     59.9290     59.9264     59.9236
       59.9210     59.9183     59.9156     59.9129     59.9102     59.9075
       59.9049     59.9021     59.8994     59.8967     59.8940     59.8913
       59.8886     59.8859     59.8832     59.8805     59.8778     59.8751
       59.8724     59.8696     59.8669     59.8642     59.8614     59.8587
       59.8559     59.8532     59.8505     59.8477     59.8449     59.8422
       59.8394     59.8366     59.8339     59.8311     59.8283     59.8256
       59.8228     59.8200     59.8172     59.8144     59.8115     59.8087
       59.8059     59.8031     59.8002     59.7974     59.7945     59.7916
       59.7887     59.7859     59.7829     59.7800     59.7770     59.7741
       59.7712     59.7682     59.7652     59.7620     59.7587     59.7550
       59.7508     59.7462     59.7417     59.7381
 
 
 VARIABLES = "Y [ft/ft]"," T [F/F]"
 ZONE F=BLOCK, T="", I =          100
        0.0050      0.0150      0.0250      0.0350      0.0450      0.0550
        0.0650      0.0750      0.0850      0.0950      0.1050      0.1150
        0.1250      0.1350      0.1450      0.1550      0.1650      0.1750
        0.1850      0.1950      0.2050      0.2150      0.2250      0.2350
        0.2450      0.2550      0.2650      0.2750      0.2850      0.2950
        0.3050      0.3150      0.3250      0.3350      0.3450      0.3550
        0.3650      0.3750      0.3850      0.3950      0.4050      0.4150
        0.4250      0.4350      0.4450      0.4550      0.4650      0.4750
        0.4850      0.4950      0.5050      0.5150      0.5250      0.5350
        0.5450      0.5550      0.5650      0.5750      0.5850      0.5950
        0.6050      0.6150      0.6250      0.6350      0.6450      0.6550
        0.6650      0.6750      0.6850      0.6950      0.7050      0.7150
        0.7250      0.7350      0.7450      0.7550      0.7650      0.7750
        0.7850      0.7950      0.8050      0.8150      0.8250      0.8350
        0.8450      0.8550      0.8650      0.8750      0.8850      0.8950
        0.9050      0.9150      0.9250      0.9350      0.9450      0.9550
        0.9650      0.9750      0.9850      0.9950
 
       85.7097     80.0024     74.5312     69.7920     66.0990     63.5025
       61.8514     60.8989     60.3992     60.1597     60.0542     60.0106
       59.9931     59.9854     59.9812     59.9781     59.9753     59.9726
       59.9699     59.9673     59.9647     59.9620     59.9593     59.9565
       59.9538     59.9512     59.9485     59.9458     59.9431     59.9404
       59.9377     59.9351     59.9324     59.9296     59.9269     59.9242
       59.9215     59.9188     59.9162     59.9135     59.9108     59.9081
       59.9054     59.9027     59.9000     59.8973     59.8946     59.8919
       59.8891     59.8864     59.8838     59.8811     59.8784     59.8757
       59.8730     59.8702     59.8675     59.8648     59.8620     59.8593
       59.8565     59.8538     59.8511     59.8483     59.8455     59.8428
       59.8400     59.8372     59.8344     59.8317     59.8289     59.8262
       59.8234     59.8206     59.8178     59.8150     59.8121     59.8093
       59.8065     59.8037     59.8009     59.7980     59.7951     59.7922
       59.7894     59.7865     59.7835     59.7806     59.7777     59.7747
       59.7718     59.7688     59.7658     59.7626     59.7593     59.7556
       59.7516     59.7472     59.7430     59.7397
 
 
 VARIABLES = "Y [ft/ft]"," T [F/F]"
 ZONE F=BLOCK, T="", I =          100
        0.0050      0.0150      0.0250      0.0350      0.0450      0.0550
        0.0650      0.0750      0.0850      0.0950      0.1050      0.1150
        0.1250      0.1350      0.1450      0.1550      0.1650      0.1750
        0.1850      0.1950      0.2050      0.2150      0.2250      0.2350
        0.2450      0.2550      0.2650      0.2750      0.2850      0.2950
        0.3050      0.3150      0.3250      0.3350      0.3450      0.3550
        0.3650      0.3750      0.3850      0.3950      0.4050      0.4150
        0.4250      0.4350      0.4450      0.4550      0.4650      0.4750
        0.4850      0.4950      0.5050      0.5150      0.5250      0.5350
        0.5450      0.5550      0.5650      0.5750      0.5850      0.5950
        0.6050      0.6150      0.6250      0.6350      0.6450      0.6550
        0.6650      0.6750      0.6850      0.6950      0.7050      0.7150
        0.7250      0.7350      0.7450      0.7550      0.7650      0.7750
        0.7850      0.7950      0.8050      0.8150      0.8250      0.8350
        0.8450      0.8550      0.8650      0.8750      0.8850      0.8950
        0.9050      0.9150      0.9250      0.9350      0.9450      0.9550
        0.9650      0.9750      0.9850      0.9950
 
       86.6823     81.2726     75.9545     71.1870     67.3067     64.4339
       62.4951     61.2998     60.6252     60.2755     60.1084     60.0340
       60.0026     59.9892     59.9828     59.9789     59.9759     59.9731